                         Program Version 5.0.4 -  RELEASE  -
|  1> ! EnGrad PBE0 RIJCOSX D3BJ def2-SVP def2/J
|  2> %output
|  3> xyzfile=True
|  4> end
|  5> %scf
|  6> maxiter 250
|  7> end
|  8> %output
|  9> Print[P_Hirshfeld] = 1
| 10> end
| 11> % maxcore
| 12> 4000
| 13> *xyz 0 2
| 14> O   -2.31759000   0.53573000   1.74437000
| 15> O   -0.50786000  -0.31910000   0.82454000
| 16> C   -0.73625000   0.18816000  -0.46064000
| 17> C    0.14222000   0.90443000   0.49829000
| 18> C    1.52214000   0.45178000   0.25354000
| 19> C    1.37506000  -0.61628000  -0.53230000
| 20> C    0.11358000  -0.67483000  -1.33290000
| 21> H   -2.22537000  -0.22554000   2.33973000
| 22> H   -1.75648000   0.50900000  -0.68405000
| 23> H   -0.18356000   1.78163000   1.05949000
| 24> H    2.40839000   0.74674000   0.81367000
| 25> H    2.19856000  -1.30329000  -0.75559000
| 26> H    0.28042000  -0.29107000  -2.35377000
| 27> H   -0.31326000  -1.68726000  -1.41438000
| 28> *
| 29>
| 30>                          ****END OF INPUT****

CARTESIAN COORDINATES (ANGSTROEM)
---------------------------------
  O     -2.317590    0.535730    1.744370
  O     -0.507860   -0.319100    0.824540
  C     -0.736250    0.188160   -0.460640
  C      0.142220    0.904430    0.498290
  C      1.522140    0.451780    0.253540
  C      1.375060   -0.616280   -0.532300
  C      0.113580   -0.674830   -1.332900
  H     -2.225370   -0.225540    2.339730
  H     -1.756480    0.509000   -0.684050
  H     -0.183560    1.781630    1.059490
  H      2.408390    0.746740    0.813670
  H      2.198560   -1.303290   -0.755590
  H      0.280420   -0.291070   -2.353770
  H     -0.313260   -1.687260   -1.414380

 Total Charge           Charge          ....    0
 Multiplicity           Mult            ....    2
 Number of Electrons    NEL             ....   53
 Basis Dimension        Dim             ....  133

ORBITAL ENERGIES
----------------
                 SPIN UP ORBITALS
  NO   OCC          E(Eh)            E(eV)
   0   1.0000     -19.235541      -523.4257
   1   1.0000     -19.211774      -522.7789
   2   1.0000     -10.289490      -279.9912
   3   1.0000     -10.288757      -279.9713
   4   1.0000     -10.245539      -278.7953
   5   1.0000     -10.241826      -278.6943
   6   1.0000     -10.235299      -278.5166
   7   1.0000      -1.135278       -30.8925
   8   1.0000      -0.966755       -26.3067
   9   1.0000      -0.843951       -22.9651
  10   1.0000      -0.753461       -20.5027
  11   1.0000      -0.679662       -18.4945
  12   1.0000      -0.600490       -16.3402
  13   1.0000      -0.569337       -15.4924
  14   1.0000      -0.564407       -15.3583
  15   1.0000      -0.475633       -12.9426
  16   1.0000      -0.469788       -12.7836
  17   1.0000      -0.438493       -11.9320
  18   1.0000      -0.435366       -11.8469
  19   1.0000      -0.412959       -11.2372
  20   1.0000      -0.402170       -10.9436
  21   1.0000      -0.385974       -10.5029
  22   1.0000      -0.361040        -9.8244
  23   1.0000      -0.329154        -8.9567
  24   1.0000      -0.298095        -8.1116
  25   1.0000      -0.294488        -8.0134
  26   1.0000      -0.246528        -6.7084
  27   0.0000      -0.006380        -0.1736
  28   0.0000       0.079146         2.1537
  29   0.0000       0.101169         2.7529
  30   0.0000       0.109220         2.9720
  31   0.0000       0.116775         3.1776

                 SPIN DOWN ORBITALS
  NO   OCC          E(Eh)            E(eV)
   0   1.0000     -19.230348      -523.2844
   1   1.0000     -19.186898      -522.1020
   2   1.0000     -10.289621      -279.9948
   3   1.0000     -10.288866      -279.9743
   4   1.0000     -10.245509      -278.7945
   5   1.0000     -10.241726      -278.6915
   6   1.0000     -10.235133      -278.5121
   7   1.0000      -1.128492       -30.7078
   8   1.0000      -0.900533       -24.5048
   9   1.0000      -0.841387       -22.8953
  10   1.0000      -0.753168       -20.4948
  11   1.0000      -0.677132       -18.4257
  12   1.0000      -0.599865       -16.3232
  13   1.0000      -0.567376       -15.4391
  14   1.0000      -0.560743       -15.2586
  15   1.0000      -0.471291       -12.8245
  16   1.0000      -0.468907       -12.7596
  17   1.0000      -0.434581       -11.8256
  18   1.0000      -0.416069       -11.3218
  19   1.0000      -0.404102       -10.9962
  20   1.0000      -0.401768       -10.9327
  21   1.0000      -0.376512       -10.2454
  22   1.0000      -0.329448        -8.9647
  23   1.0000      -0.301166        -8.1951
  24   1.0000      -0.271462        -7.3869
  25   1.0000      -0.250055        -6.8043
  26   0.0000      -0.078188        -2.1276
  27   0.0000      -0.005462        -0.1486
  28   0.0000       0.080491         2.1903
  29   0.0000       0.104383         2.8404
  30   0.0000       0.111733         3.0404

MULLIKEN ATOMIC CHARGES AND SPIN POPULATIONS
--------------------------------------------
   0 O :   -0.258480    0.900731
   1 O :   -0.305360    0.122820
   2 C :   -0.001536   -0.007364
   3 C :    0.083968   -0.007935
   4 C :    0.024661    0.009503
   5 C :   -0.140342    0.003236
   6 C :    0.112173    0.000378
   7 H :    0.173124   -0.024030
   8 H :    0.062504    0.002144
   9 H :    0.055081    0.001138
  10 H :    0.036717   -0.000432
  11 H :    0.031272   -0.000071
  12 H :    0.064857    0.000089
  13 H :    0.061362   -0.000207
Sum of atomic charges         :   -0.0000000

LOEWDIN ATOMIC CHARGES AND SPIN POPULATIONS
-------------------------------------------
   0 O :   -0.151871    0.861378
   1 O :   -0.106713    0.131127
   2 C :    0.053403   -0.002766
   3 C :    0.054387   -0.004534
   4 C :   -0.055572    0.007762
   5 C :   -0.006389    0.002619
   6 C :   -0.048063    0.000594
   7 H :    0.052657    0.002383
   8 H :    0.027575    0.001030
   9 H :    0.029358    0.000521
  10 H :    0.034699    0.000126
  11 H :    0.025296   -0.000001
  12 H :    0.044989   -0.000049
  13 H :    0.046246   -0.000190

  Mayer bond orders larger than 0.100000
B(  0-O ,  1-O ) :   0.1740 B(  0-O ,  7-H ) :   0.9856 B(  1-O ,  2-C ) :   0.9236
B(  1-O ,  3-C ) :   0.8937 B(  2-C ,  3-C ) :   1.0225 B(  2-C ,  6-C ) :   0.9954
B(  2-C ,  8-H ) :   0.9666 B(  3-C ,  4-C ) :   0.9688 B(  3-C ,  9-H ) :   0.9773
B(  4-C ,  5-C ) :   1.8329 B(  4-C , 10-H ) :   0.9957 B(  5-C ,  6-C ) :   1.0206
B(  5-C , 11-H ) :   0.9666 B(  6-C , 12-H ) :   0.9245 B(  6-C , 13-H ) :   0.9232

Dispersion correction           -0.009780259
FINAL SINGLE POINT ENERGY      -344.371189707841
Dispersion correction            ... done

DIPOLE MOMENT
-------------
                                X             Y             Z
Electronic contribution:     -0.92052       0.63880       1.92319
Nuclear contribution   :      1.39097      -0.83919      -2.30594
                        -----------------------------------------
Total Dipole Moment    :      0.47045      -0.20039      -0.38276
                        -----------------------------------------
Magnitude (a.u.)       :      0.63874
Magnitude (Debye)      :      1.62354

Rotational constants in cm-1:     0.202292     0.070171     0.059519
Rotational constants in MHz :  6064.551561  2103.667390  1784.349130

                             ****ORCA TERMINATED NORMALLY****
TOTAL RUN TIME: 0 days 0 hours 1 minutes 15 seconds 440 msec
