                         Program Version 5.0.4 -  RELEASE  -
|  1> ! EnGrad PBE0 RIJCOSX D3BJ def2-SVP def2/J
|  2> %output
|  3> xyzfile=True
|  4> end
|  5> %scf
|  6> maxiter 250
|  7> end
|  8> %output
|  9> Print[P_Hirshfeld] = 1
| 10> end
| 11> % maxcore
| 12> 4000
| 13> *xyz 0 2
| 14> O   -2.33753834   0.54688010   1.75423483
| 15> O   -0.62146395  -0.30802875   0.91028824
| 16> C   -0.73531962   0.18747594  -0.45925435
| 17> C    0.14111568   0.90364660   0.49853694
| 18> C    1.52369941   0.45208850   0.25285257
| 19> C    1.50597509  -0.63732953  -0.62642161
| 20> C    0.11411830  -0.67491690  -1.33390022
| 21> H   -2.22707227  -0.22315078   2.33967534
| 22> H   -1.75664208   0.50663055  -0.68279985
| 23> H   -0.18344214   1.77967493   1.06088259
| 24> H    2.40917163   0.74743876   0.81252341
| 25> H    2.19916254  -1.30283210  -0.75650811
| 26> H    0.28064060  -0.29013265  -2.35408287
| 27> H   -0.31221249  -1.68732311  -1.41584606
| 28> *
| 29>
| 30>                          ****END OF INPUT****

CARTESIAN COORDINATES (ANGSTROEM)
---------------------------------
  O     -2.337538    0.546880    1.754235
  O     -0.621464   -0.308029    0.910288
  C     -0.735320    0.187476   -0.459254
  C      0.141116    0.903647    0.498537
  C      1.523699    0.452089    0.252853
  C      1.505975   -0.637330   -0.626422
  C      0.114118   -0.674917   -1.333900
  H     -2.227072   -0.223151    2.339675
  H     -1.756642    0.506631   -0.682800
  H     -0.183442    1.779675    1.060883
  H      2.409172    0.747439    0.812523
  H      2.199163   -1.302832   -0.756508
  H      0.280641   -0.290133   -2.354083
  H     -0.312212   -1.687323   -1.415846

 Total Charge           Charge          ....    0
 Multiplicity           Mult            ....    2
 Number of Electrons    NEL             ....   53
 Basis Dimension        Dim             ....  133

ORBITAL ENERGIES
----------------
                 SPIN UP ORBITALS
  NO   OCC          E(Eh)            E(eV)
   0   1.0000     -19.238760      -523.5133
   1   1.0000     -19.199235      -522.4377
   2   1.0000     -10.296941      -280.1940
   3   1.0000     -10.295370      -280.1513
   4   1.0000     -10.254130      -279.0291
   5   1.0000     -10.251625      -278.9609
   6   1.0000     -10.251120      -278.9472
   7   1.0000      -1.096669       -29.8419
   8   1.0000      -0.954450       -25.9719
   9   1.0000      -0.838578       -22.8189
  10   1.0000      -0.745251       -20.2793
  11   1.0000      -0.693403       -18.8685
  12   1.0000      -0.599870       -16.3233
  13   1.0000      -0.584228       -15.8976
  14   1.0000      -0.557430       -15.1684
  15   1.0000      -0.479108       -13.0372
  16   1.0000      -0.462751       -12.5921
  17   1.0000      -0.436343       -11.8735
  18   1.0000      -0.421831       -11.4786
  19   1.0000      -0.414679       -11.2840
  20   1.0000      -0.411528       -11.1982
  21   1.0000      -0.375362       -10.2141
  22   1.0000      -0.369764       -10.0618
  23   1.0000      -0.333196        -9.0667
  24   1.0000      -0.286699        -7.8015
  25   1.0000      -0.280829        -7.6417
  26   1.0000      -0.251244        -6.8367
  27   0.0000      -0.025266        -0.6875
  28   0.0000       0.081137         2.2078
  29   0.0000       0.093629         2.5478
  30   0.0000       0.108540         2.9535
  31   0.0000       0.111882         3.0445

                 SPIN DOWN ORBITALS
  NO   OCC          E(Eh)            E(eV)
   0   1.0000     -19.232462      -523.3419
   1   1.0000     -19.174586      -521.7670
   2   1.0000     -10.297103      -280.1984
   3   1.0000     -10.295535      -280.1558
   4   1.0000     -10.254102      -279.0283
   5   1.0000     -10.251585      -278.9598
   6   1.0000     -10.250966      -278.9430
   7   1.0000      -1.088004       -29.6061
   8   1.0000      -0.890907       -24.2428
   9   1.0000      -0.835268       -22.7288
  10   1.0000      -0.745169       -20.2771
  11   1.0000      -0.690367       -18.7858
  12   1.0000      -0.599057       -16.3012
  13   1.0000      -0.583330       -15.8732
  14   1.0000      -0.553858       -15.0712
  15   1.0000      -0.472846       -12.8668
  16   1.0000      -0.460789       -12.5387
  17   1.0000      -0.430563       -11.7162
  18   1.0000      -0.415035       -11.2937
  19   1.0000      -0.412295       -11.2191
  20   1.0000      -0.396494       -10.7891
  21   1.0000      -0.371307       -10.1038
  22   1.0000      -0.338148        -9.2015
  23   1.0000      -0.297055        -8.0833
  24   1.0000      -0.262885        -7.1535
  25   1.0000      -0.257534        -7.0078
  26   0.0000      -0.060621        -1.6496
  27   0.0000      -0.023718        -0.6454
  28   0.0000       0.082867         2.2549
  29   0.0000       0.095781         2.6063
  30   0.0000       0.109766         2.9869

MULLIKEN ATOMIC CHARGES AND SPIN POPULATIONS
--------------------------------------------
   0 O :   -0.276416    0.878869
   1 O :   -0.334769    0.148405
   2 C :    0.017500   -0.008899
   3 C :    0.085175   -0.008540
   4 C :    0.027525   -0.003340
   5 C :   -0.061302    0.011949
   6 C :    0.074512   -0.000078
   7 H :    0.172186   -0.022916
   8 H :    0.073799    0.002844
   9 H :    0.065517    0.001668
  10 H :    0.039714    0.000231
  11 H :   -0.024379   -0.000548
  12 H :    0.072685    0.000489
  13 H :    0.068255   -0.000134
Sum of atomic charges         :    0.0000000

LOEWDIN ATOMIC CHARGES AND SPIN POPULATIONS
-------------------------------------------
   0 O :   -0.176370    0.838895
   1 O :   -0.144957    0.159555
   2 C :    0.073788   -0.004788
   3 C :    0.072328   -0.005936
   4 C :   -0.046529   -0.001779
   5 C :    0.029414    0.008919
   6 C :   -0.045877    0.000721
   7 H :    0.050550    0.001903
   8 H :    0.033715    0.001356
   9 H :    0.034111    0.000732
  10 H :    0.031921    0.000159
  11 H :   -0.004876    0.000120
  12 H :    0.046867    0.000255
  13 H :    0.045915   -0.000109

  Mayer bond orders larger than 0.100000
B(  0-O ,  1-O ) :   0.2071 B(  0-O ,  7-H ) :   0.9848 B(  1-O ,  2-C ) :   0.9052
B(  1-O ,  3-C ) :   0.8688 B(  2-C ,  3-C ) :   1.0239 B(  2-C ,  6-C ) :   1.0051
B(  2-C ,  8-H ) :   0.9581 B(  3-C ,  4-C ) :   0.9881 B(  3-C ,  9-H ) :   0.9704
B(  4-C ,  5-C ) :   1.8060 B(  4-C , 10-H ) :   0.9947 B(  5-C ,  6-C ) :   1.0033
B(  5-C , 11-H ) :   1.0009 B(  6-C , 12-H ) :   0.9287 B(  6-C , 13-H ) :   0.9302

Dispersion correction           -0.009763763
FINAL SINGLE POINT ENERGY      -344.366446161127
Dispersion correction            ... done

DIPOLE MOMENT
-------------
                                X             Y             Z
Electronic contribution:     -0.75500       0.59914       1.79028
Nuclear contribution   :      1.42581      -0.84461      -2.33215
                        -----------------------------------------
Total Dipole Moment    :      0.67080      -0.24547      -0.54187
                        -----------------------------------------
Magnitude (a.u.)       :      0.89658
Magnitude (Debye)      :      2.27893

Rotational constants in cm-1:     0.201875     0.066726     0.057057
Rotational constants in MHz :  6052.073649  2000.392523  1710.512960

                             ****ORCA TERMINATED NORMALLY****
TOTAL RUN TIME: 0 days 0 hours 1 minutes 9 seconds 643 msec
