                         Program Version 5.0.4 -  RELEASE  -
|  1> ! EnGrad PBE0 RIJCOSX D3BJ def2-SVP def2/J
|  2> %output
|  3> xyzfile=True
|  4> end
|  5> %scf
|  6> maxiter 250
|  7> end
|  8> %output
|  9> Print[P_Hirshfeld] = 1
| 10> end
| 11> % maxcore
| 12> 4000
| 13> *xyz 0 2
| 14> O   -2.34063528   0.54765644   1.75635560
| 15> O   -0.61655517  -0.30152277   0.90103583
| 16> C   -0.73405235   0.18505853  -0.45008720
| 17> C    0.13718144   0.89655265   0.49960748
| 18> C    1.52658131   0.43607575   0.24264994
| 19> C    1.46762357  -0.59520511  -0.61250227
| 20> C    0.12304769  -0.67817860  -1.33221363
| 21> H   -2.22752271  -0.22203023   2.33919728
| 22> H   -1.75588104   0.50736304  -0.68408208
| 23> H   -0.18266858   1.78050952   1.06014662
| 24> H    2.40896197   0.74824920   0.81372828
| 25> H    2.22745836  -1.32725066  -0.76317590
| 26> H    0.27856379  -0.28970372  -2.35447317
| 27> H   -0.31188300  -1.68747209  -1.41603633
| 28> *
| 29>
| 30>                          ****END OF INPUT****

CARTESIAN COORDINATES (ANGSTROEM)
---------------------------------
  O     -2.340635    0.547656    1.756356
  O     -0.616555   -0.301523    0.901036
  C     -0.734052    0.185059   -0.450087
  C      0.137181    0.896553    0.499607
  C      1.526581    0.436076    0.242650
  C      1.467624   -0.595205   -0.612502
  C      0.123048   -0.678179   -1.332214
  H     -2.227523   -0.222030    2.339197
  H     -1.755881    0.507363   -0.684082
  H     -0.182669    1.780510    1.060147
  H      2.408962    0.748249    0.813728
  H      2.227458   -1.327251   -0.763176
  H      0.278564   -0.289704   -2.354473
  H     -0.311883   -1.687472   -1.416036

 Total Charge           Charge          ....    0
 Multiplicity           Mult            ....    2
 Number of Electrons    NEL             ....   53
 Basis Dimension        Dim             ....  133

ORBITAL ENERGIES
----------------
                 SPIN UP ORBITALS
  NO   OCC          E(Eh)            E(eV)
   0   1.0000     -19.238526      -523.5069
   1   1.0000     -19.201378      -522.4960
   2   1.0000     -10.294543      -280.1287
   3   1.0000     -10.292987      -280.0864
   4   1.0000     -10.251706      -278.9631
   5   1.0000     -10.248987      -278.8891
   6   1.0000     -10.244339      -278.7626
   7   1.0000      -1.107802       -30.1448
   8   1.0000      -0.957188       -26.0464
   9   1.0000      -0.846698       -23.0398
  10   1.0000      -0.746302       -20.3079
  11   1.0000      -0.687390       -18.7048
  12   1.0000      -0.599525       -16.3139
  13   1.0000      -0.573087       -15.5945
  14   1.0000      -0.559445       -15.2233
  15   1.0000      -0.480062       -13.0632
  16   1.0000      -0.462814       -12.5938
  17   1.0000      -0.431935       -11.7536
  18   1.0000      -0.425470       -11.5776
  19   1.0000      -0.416903       -11.3445
  20   1.0000      -0.406894       -11.0722
  21   1.0000      -0.381413       -10.3788
  22   1.0000      -0.366576        -9.9750
  23   1.0000      -0.332604        -9.0506
  24   1.0000      -0.288770        -7.8578
  25   1.0000      -0.283485        -7.7140
  26   1.0000      -0.255960        -6.9650
  27   0.0000      -0.012673        -0.3449
  28   0.0000       0.078199         2.1279
  29   0.0000       0.098513         2.6807
  30   0.0000       0.108842         2.9617
  31   0.0000       0.112228         3.0539

                 SPIN DOWN ORBITALS
  NO   OCC          E(Eh)            E(eV)
   0   1.0000     -19.232461      -523.3419
   1   1.0000     -19.176624      -521.8225
   2   1.0000     -10.294698      -280.1330
   3   1.0000     -10.293143      -280.0907
   4   1.0000     -10.251673      -278.9622
   5   1.0000     -10.248826      -278.8847
   6   1.0000     -10.244312      -278.7619
   7   1.0000      -1.099598       -29.9216
   8   1.0000      -0.893210       -24.3055
   9   1.0000      -0.843449       -22.9514
  10   1.0000      -0.746169       -20.3043
  11   1.0000      -0.684272       -18.6200
  12   1.0000      -0.598887       -16.2966
  13   1.0000      -0.571927       -15.5629
  14   1.0000      -0.555599       -15.1186
  15   1.0000      -0.473588       -12.8870
  16   1.0000      -0.461562       -12.5597
  17   1.0000      -0.422636       -11.5005
  18   1.0000      -0.422051       -11.4846
  19   1.0000      -0.407324       -11.0838
  20   1.0000      -0.398572       -10.8457
  21   1.0000      -0.374905       -10.2017
  22   1.0000      -0.337869        -9.1939
  23   1.0000      -0.295749        -8.0477
  24   1.0000      -0.266689        -7.2570
  25   1.0000      -0.261529        -7.1166
  26   0.0000      -0.062960        -1.7132
  27   0.0000      -0.011499        -0.3129
  28   0.0000       0.079564         2.1650
  29   0.0000       0.101361         2.7582
  30   0.0000       0.109288         2.9739

MULLIKEN ATOMIC CHARGES AND SPIN POPULATIONS
--------------------------------------------
   0 O :   -0.271319    0.884596
   1 O :   -0.327837    0.141610
   2 C :    0.009536   -0.008270
   3 C :    0.076595   -0.008169
   4 C :    0.034441   -0.000940
   5 C :   -0.123912    0.009278
   6 C :    0.086375    0.000233
   7 H :    0.172041   -0.023027
   8 H :    0.071363    0.003050
   9 H :    0.064087    0.001821
  10 H :    0.039609    0.000118
  11 H :    0.030815   -0.000573
  12 H :    0.071260    0.000430
  13 H :    0.066945   -0.000155
Sum of atomic charges         :   -0.0000000

LOEWDIN ATOMIC CHARGES AND SPIN POPULATIONS
-------------------------------------------
   0 O :   -0.170512    0.844343
   1 O :   -0.133916    0.152744
   2 C :    0.066645   -0.004114
   3 C :    0.068823   -0.005384
   4 C :   -0.053779    0.000148
   5 C :    0.001248    0.006722
   6 C :   -0.047926    0.000896
   7 H :    0.050186    0.002133
   8 H :    0.032115    0.001514
   9 H :    0.033144    0.000847
  10 H :    0.035461    0.000151
  11 H :    0.024593   -0.000109
  12 H :    0.047627    0.000230
  13 H :    0.046290   -0.000122

  Mayer bond orders larger than 0.100000
B(  0-O ,  1-O ) :   0.1993 B(  0-O ,  7-H ) :   0.9852 B(  1-O ,  2-C ) :   0.9123
B(  1-O ,  3-C ) :   0.8761 B(  2-C ,  3-C ) :   1.0289 B(  2-C ,  6-C ) :   1.0016
B(  2-C ,  8-H ) :   0.9569 B(  3-C ,  4-C ) :   0.9776 B(  3-C ,  9-H ) :   0.9691
B(  4-C ,  5-C ) :   1.8232 B(  4-C , 10-H ) :   0.9950 B(  5-C ,  6-C ) :   1.0120
B(  5-C , 11-H ) :   0.9773 B(  6-C , 12-H ) :   0.9275 B(  6-C , 13-H ) :   0.9286

Dispersion correction           -0.009760633
FINAL SINGLE POINT ENERGY      -344.384791979113
Dispersion correction            ... done

DIPOLE MOMENT
-------------
                                X             Y             Z
Electronic contribution:     -0.82392       0.63494       1.83338
Nuclear contribution   :      1.47114      -0.88091      -2.34461
                        -----------------------------------------
Total Dipole Moment    :      0.64722      -0.24596      -0.51122
                        -----------------------------------------
Magnitude (a.u.)       :      0.86066
Magnitude (Debye)      :      2.18764

Rotational constants in cm-1:     0.205101     0.067244     0.057437
Rotational constants in MHz :  6148.763069  2015.920311  1721.903967

                             ****ORCA TERMINATED NORMALLY****
TOTAL RUN TIME: 0 days 0 hours 0 minutes 55 seconds 675 msec
