                         Program Version 5.0.4 -  RELEASE  -
|  1> ! Opt PBE0 RIJCOSX D3BJ def2-SVP def2/J
|  2> %output
|  3> xyzfile=True
|  4> end
|  5> %scf
|  6> maxiter 250
|  7> end
|  8> %output
|  9> Print[P_Hirshfeld] = 1
| 10> end
| 11> % maxcore
| 12> 4000
| 13> %pal nprocs 8
| 14> end
| 15> *xyz 0 1
| 16> C    1.08556266  -0.78363687  -0.19489519
| 17> C    1.24163807   0.53593015  -0.03705368
| 18> C   -0.20849334   1.01903682  -0.19237905
| 19> C   -0.96725054   0.02766228   0.72615129
| 20> C   -0.43187390  -0.87025035  -0.41818844
| 21> O   -0.66708827   0.23692906  -1.32047234
| 22> H    1.80364034  -1.60259337  -0.17850750
| 23> H    2.12806773   1.14078681   0.14962786
| 24> H   -0.42833456   2.09342838  -0.25030111
| 25> H   -2.05810086   0.16174108   0.68188234
| 26> H   -0.60671528  -0.13747598   1.75208362
| 27> H   -0.89115203  -1.82165801  -0.71814778
| 28> *
| 29>
| 30>                          ****END OF INPUT****
 Total Charge           Charge          ....    0
 Multiplicity           Mult            ....    1
 Number of Electrons    NEL             ....   44
Dispersion correction           -0.008293207
FINAL SINGLE POINT ENERGY      -268.760900937328
Dispersion correction            ... done
Dispersion correction           -0.008293605
FINAL SINGLE POINT ENERGY      -268.760905402203
Dispersion correction            ... done
Dispersion correction           -0.008293655
FINAL SINGLE POINT ENERGY      -268.760908815783
Dispersion correction            ... done
                    ***********************HURRAY********************

CARTESIAN COORDINATES (ANGSTROEM)
---------------------------------
  C      1.084598   -0.783145   -0.195159
  C      1.240590    0.535753   -0.037383
  C     -0.209241    1.019717   -0.192190
  C     -0.966677    0.027565    0.726359
  C     -0.432750   -0.870793   -0.418137
  O     -0.667799    0.236884   -1.319421
  H      1.807235   -1.597902   -0.177523
  H      2.130436    1.135349    0.149324
  H     -0.429734    2.093644   -0.249925
  H     -2.057435    0.161926    0.679550
  H     -0.606660   -0.137505    1.752125
  H     -0.892662   -1.821592   -0.717821

 Multiplicity           Mult            ....    1
 Number of Electrons    NEL             ....   44
 Basis Dimension        Dim             ....  114

ORBITAL ENERGIES
----------------

  NO   OCC          E(Eh)            E(eV)
   0   2.0000     -19.200703      -522.4777
   1   2.0000     -10.293573      -280.1024
   2   2.0000     -10.293532      -280.1013
   3   2.0000     -10.244441      -278.7654
   4   2.0000     -10.239440      -278.6293
   5   2.0000     -10.238570      -278.6057
   6   2.0000      -1.086270       -29.5589
   7   2.0000      -0.827295       -22.5119
   8   2.0000      -0.731461       -19.9041
   9   2.0000      -0.711104       -19.3501
  10   2.0000      -0.569054       -15.4847
  11   2.0000      -0.556795       -15.1512
  12   2.0000      -0.549213       -14.9448
  13   2.0000      -0.489649       -13.3240
  14   2.0000      -0.436427       -11.8758
  15   2.0000      -0.433073       -11.7845
  16   2.0000      -0.411130       -11.1874
  17   2.0000      -0.371038       -10.0965
  18   2.0000      -0.351707        -9.5704
  19   2.0000      -0.345163        -9.3924
  20   2.0000      -0.271319        -7.3830
  21   2.0000      -0.253817        -6.9067
  22   0.0000      -0.002780        -0.0757
  23   0.0000       0.081047         2.2054
  24   0.0000       0.112446         3.0598
  25   0.0000       0.116726         3.1763
  26   0.0000       0.121018         3.2931

MULLIKEN ATOMIC CHARGES
-----------------------
   0 C :    0.000313
   1 C :    0.000253
   2 C :    0.065505
   3 C :    0.015761
   4 C :    0.065072
   5 O :   -0.373935
   6 H :    0.029602
   7 H :    0.029298
   8 H :    0.031145
   9 H :    0.054784
  10 H :    0.050982
  11 H :    0.031220
Sum of atomic charges:    0.0000000

LOEWDIN ATOMIC CHARGES
----------------------
   0 C :   -0.033756
   1 C :   -0.033698
   2 C :    0.076538
   3 C :   -0.028782
   4 C :    0.076620
   5 O :   -0.198280
   6 H :    0.029042
   7 H :    0.028981
   8 H :    0.016583
   9 H :    0.029174
  10 H :    0.020982
  11 H :    0.016595

  Mayer bond orders larger than 0.100000
B(  0-C ,  1-C ) :   1.8142 B(  0-C ,  4-C ) :   0.9162 B(  0-C ,  6-H ) :   1.0154
B(  1-C ,  2-C ) :   0.9165 B(  1-C ,  7-H ) :   1.0154 B(  2-C ,  3-C ) :   0.9970
B(  2-C ,  5-O ) :   0.9389 B(  2-C ,  8-H ) :   0.9773 B(  3-C ,  4-C ) :   0.9969
B(  3-C ,  9-H ) :   0.9364 B(  3-C , 10-H ) :   0.9527 B(  4-C ,  5-O ) :   0.9388
B(  4-C , 11-H ) :   0.9773

Dispersion correction           -0.008293475
FINAL SINGLE POINT ENERGY      -268.760909316205

DIPOLE MOMENT
-------------
                                X             Y             Z
Electronic contribution:      0.10199       0.23549      -2.06954
Nuclear contribution   :      0.09055      -0.34278       2.77527
                        -----------------------------------------
Total Dipole Moment    :      0.19254      -0.10730       0.70573
                        -----------------------------------------
Magnitude (a.u.)       :      0.73935
Magnitude (Debye)      :      1.87928

Rotational constants in cm-1:     0.210061     0.162928     0.149883
Rotational constants in MHz :  6297.470228  4884.473157  4493.367841

                             ****ORCA TERMINATED NORMALLY****
TOTAL RUN TIME: 0 days 0 hours 0 minutes 20 seconds 979 msec
