                         Program Version 5.0.4 -  RELEASE  -
|  1> ! Opt PBE0 RIJCOSX D3BJ def2-SVP def2/J
|  2> %output
|  3> xyzfile=True
|  4> end
|  5> %scf
|  6> maxiter 250
|  7> end
|  8> %output
|  9> Print[P_Hirshfeld] = 1
| 10> end
| 11> % maxcore
| 12> 4000
| 13> %pal nprocs 8
| 14> end
| 15> *xyz 0 2
| 16> O   -2.57986311  -0.38897855   0.74954506
| 17> O   -1.35374563   0.21555431   1.15412523
| 18> C   -0.62233619   0.48639295  -0.02542794
| 19> C    0.57952837   1.28684397   0.38142993
| 20> C    1.74128930   0.59345853   0.06775171
| 21> C    1.44901078  -0.61578611  -0.55154658
| 22> C   -0.03321319  -0.77657588  -0.69411834
| 23> H   -2.58669781  -1.16847652   1.32124203
| 24> H   -1.28632736   1.04486620  -0.71242235
| 25> H    0.51140829   2.25453270   0.87886682
| 26> H    2.75128854   0.95424791   0.27499713
| 27> H    2.18425223  -1.34250602  -0.90126864
| 28> H   -0.33534715  -0.86418043  -1.75221100
| 29> H   -0.41924706  -1.67929305  -0.19096306
| 30> *
| 31>
| 32>                          ****END OF INPUT****
 Total Charge           Charge          ....    0
 Multiplicity           Mult            ....    2
 Number of Electrons    NEL             ....   53
Dispersion correction           -0.009952606
FINAL SINGLE POINT ENERGY      -344.396840698404
Dispersion correction            ... done
Dispersion correction           -0.009952670
FINAL SINGLE POINT ENERGY      -344.396842517955
Dispersion correction            ... done
                    ***********************HURRAY********************

CARTESIAN COORDINATES (ANGSTROEM)
---------------------------------
  O     -2.581359   -0.389406    0.747071
  O     -1.355998    0.216925    1.154569
  C     -0.621803    0.487006   -0.023998
  C      0.580419    1.286103    0.382749
  C      1.741865    0.593663    0.067199
  C      1.448890   -0.615044   -0.552830
  C     -0.033387   -0.776539   -0.691964
  H     -2.585941   -1.170205    1.316921
  H     -1.284150    1.046468   -0.711799
  H      0.511785    2.254278    0.879016
  H      2.751745    0.954998    0.273366
  H      2.182946   -1.342272   -0.903589
  H     -0.337400   -0.866769   -1.749259
  H     -0.417613   -1.679107   -0.187451

 Multiplicity           Mult            ....    2
 Number of Electrons    NEL             ....   53
 Basis Dimension        Dim             ....  133

ORBITAL ENERGIES
----------------
                 SPIN UP ORBITALS
  NO   OCC          E(Eh)            E(eV)
   0   1.0000     -19.257649      -524.0273
   1   1.0000     -19.254521      -523.9421
   2   1.0000     -10.285345      -279.8785
   3   1.0000     -10.247218      -278.8410
   4   1.0000     -10.243411      -278.7374
   5   1.0000     -10.240225      -278.6507
   6   1.0000     -10.237430      -278.5746
   7   1.0000      -1.144063       -31.1315
   8   1.0000      -0.933467       -25.4009
   9   1.0000      -0.861961       -23.4552
  10   1.0000      -0.733367       -19.9559
  11   1.0000      -0.709788       -19.3143
  12   1.0000      -0.587418       -15.9844
  13   1.0000      -0.563018       -15.3205
  14   1.0000      -0.547383       -14.8950
  15   1.0000      -0.532709       -14.4958
  16   1.0000      -0.483587       -13.1591
  17   1.0000      -0.453127       -12.3302
  18   1.0000      -0.421581       -11.4718
  19   1.0000      -0.404098       -10.9961
  20   1.0000      -0.394237       -10.7277
  21   1.0000      -0.387437       -10.5427
  22   1.0000      -0.361924        -9.8485
  23   1.0000      -0.334035        -9.0896
  24   1.0000      -0.320783        -8.7289
  25   1.0000      -0.261738        -7.1222
  26   1.0000      -0.200423        -5.4538
  27   0.0000       0.024679         0.6715
  28   0.0000       0.061340         1.6691
  29   0.0000       0.080260         2.1840
  30   0.0000       0.096447         2.6245
  31   0.0000       0.113567         3.0903

                 SPIN DOWN ORBITALS
  NO   OCC          E(Eh)            E(eV)
   0   1.0000     -19.256788      -524.0038
   1   1.0000     -19.254302      -523.9362
   2   1.0000     -10.286023      -279.8969
   3   1.0000     -10.244407      -278.7645
   4   1.0000     -10.238089      -278.5926
   5   1.0000     -10.236901      -278.5602
   6   1.0000     -10.233318      -278.4627
   7   1.0000      -1.142771       -31.0964
   8   1.0000      -0.930350       -25.3161
   9   1.0000      -0.853000       -23.2113
  10   1.0000      -0.727144       -19.7866
  11   1.0000      -0.695851       -18.9351
  12   1.0000      -0.578664       -15.7463
  13   1.0000      -0.559049       -15.2125
  14   1.0000      -0.541628       -14.7385
  15   1.0000      -0.528640       -14.3850
  16   1.0000      -0.479911       -13.0590
  17   1.0000      -0.449984       -12.2447
  18   1.0000      -0.414234       -11.2719
  19   1.0000      -0.398783       -10.8514
  20   1.0000      -0.390295       -10.6205
  21   1.0000      -0.382314       -10.4033
  22   1.0000      -0.358634        -9.7589
  23   1.0000      -0.325493        -8.8571
  24   1.0000      -0.300609        -8.1800
  25   1.0000      -0.260893        -7.0993
  26   0.0000      -0.062845        -1.7101
  27   0.0000       0.037945         1.0325
  28   0.0000       0.066903         1.8205
  29   0.0000       0.088095         2.3972
  30   0.0000       0.100110         2.7241

MULLIKEN ATOMIC CHARGES AND SPIN POPULATIONS
--------------------------------------------
   0 O :   -0.165999    0.008381
   1 O :   -0.274272    0.011535
   2 C :    0.132735   -0.049827
   3 C :   -0.064408    0.701671
   4 C :   -0.003493   -0.325621
   5 C :   -0.112271    0.708789
   6 C :    0.043556   -0.064528
   7 H :    0.192358   -0.000231
   8 H :    0.045187    0.021422
   9 H :    0.041605   -0.033951
  10 H :    0.030205    0.011196
  11 H :    0.035549   -0.035100
  12 H :    0.058150    0.024046
  13 H :    0.041098    0.022217
Sum of atomic charges         :    0.0000000

LOEWDIN ATOMIC CHARGES AND SPIN POPULATIONS
-------------------------------------------
   0 O :   -0.062847    0.006662
   1 O :   -0.097062    0.018258
   2 C :    0.041821   -0.001216
   3 C :   -0.028489    0.547896
   4 C :   -0.042309   -0.175142
   5 C :   -0.017536    0.559009
   6 C :   -0.056579   -0.010024
   7 H :    0.073277    0.000224
   8 H :    0.021961    0.018526
   9 H :    0.029291   -0.001584
  10 H :    0.034194    0.000391
  11 H :    0.025037   -0.001444
  12 H :    0.041490    0.020593
  13 H :    0.037750    0.017852

  Mayer bond orders larger than 0.100000
B(  0-O ,  1-O ) :   0.9291 B(  0-O ,  7-H ) :   0.9732 B(  1-O ,  2-C ) :   0.9210
B(  2-C ,  3-C ) :   1.0253 B(  2-C ,  6-C ) :   1.0332 B(  2-C ,  8-H ) :   0.9213
B(  3-C ,  4-C ) :   1.3988 B(  3-C ,  5-C ) :   0.1293 B(  3-C ,  9-H ) :   0.9884
B(  4-C ,  5-C ) :   1.4117 B(  4-C , 10-H ) :   0.9953 B(  5-C ,  6-C ) :   1.0333
B(  5-C , 11-H ) :   0.9865 B(  6-C , 12-H ) :   0.9273 B(  6-C , 13-H ) :   0.9189

Dispersion correction           -0.009952894
FINAL SINGLE POINT ENERGY      -344.396843774963

DIPOLE MOMENT
-------------
                                X             Y             Z
Electronic contribution:     -1.99750       0.81109       2.10615
Nuclear contribution   :      2.35907      -1.29764      -2.28552
                        -----------------------------------------
Total Dipole Moment    :      0.36156      -0.48655      -0.17937
                        -----------------------------------------
Magnitude (a.u.)       :      0.63217
Magnitude (Debye)      :      1.60684

Rotational constants in cm-1:     0.209756     0.066326     0.054646
Rotational constants in MHz :  6288.337450  1988.396360  1638.254791

                             ****ORCA TERMINATED NORMALLY****
TOTAL RUN TIME: 0 days 0 hours 0 minutes 22 seconds 880 msec
