                         Program Version 5.0.4 -  RELEASE  -
|  1> ! Freq PBE0 RIJCOSX D3BJ def2-SVP def2/J
|  2> %output
|  3> xyzfile=True
|  4> end
|  5> %scf
|  6> maxiter 250
|  7> end
|  8> %output
|  9> Print[P_Hirshfeld] = 1
| 10> end
| 11> % maxcore
| 12> 4000
| 13> %pal nprocs 8
| 14> end
| 15> *xyz 0 1
| 16> C    0.21691329   1.60460999  -0.32497021
| 17> C   -1.04732083   1.27369177  -0.09473722
| 18> C   -1.62831632  -0.03815331   0.20796981
| 19> C   -0.13152271  -1.43969970   0.70397151
| 20> C    0.91791491  -1.28631025  -0.29598329
| 21> C    1.41785520   0.76284308  -0.32489174
| 22> H    0.43087808   2.65044352  -0.53531113
| 23> H   -1.78927335   2.06821229  -0.13872352
| 24> H   -2.23949274  -0.06286165   1.09976819
| 25> H   -2.09578334  -0.53005289  -0.63514457
| 26> H    0.13238736  -1.17084313   1.71569032
| 27> H   -0.73674022  -2.33441240   0.63385143
| 28> H    1.89424474  -1.67355913  -0.03409577
| 29> H    0.63258584  -1.48267876  -1.31865598
| 30> H    2.01962098   0.84035436   0.57163014
| 31> H    2.00616909   0.81871620  -1.23039797
| 32> *
| 33>
| 34>                          ****END OF INPUT****

CARTESIAN COORDINATES (ANGSTROEM)
---------------------------------
  C      0.216913    1.604610   -0.324970
  C     -1.047321    1.273692   -0.094737
  C     -1.628316   -0.038153    0.207970
  C     -0.131523   -1.439700    0.703972
  C      0.917915   -1.286310   -0.295983
  C      1.417855    0.762843   -0.324892
  H      0.430878    2.650444   -0.535311
  H     -1.789273    2.068212   -0.138724
  H     -2.239493   -0.062862    1.099768
  H     -2.095783   -0.530053   -0.635145
  H      0.132387   -1.170843    1.715690
  H     -0.736740   -2.334412    0.633851
  H      1.894245   -1.673559   -0.034096
  H      0.632586   -1.482679   -1.318656
  H      2.019621    0.840354    0.571630
  H      2.006169    0.818716   -1.230398

 Total Charge           Charge          ....    0
 Multiplicity           Mult            ....    1
 Number of Electrons    NEL             ....   46
 Basis Dimension        Dim             ....  134

ORBITAL ENERGIES
----------------

  NO   OCC          E(Eh)            E(eV)
   0   2.0000     -10.246966      -278.8341
   1   2.0000     -10.246711      -278.8272
   2   2.0000     -10.244305      -278.7617
   3   2.0000     -10.244281      -278.7610
   4   2.0000     -10.227011      -278.2911
   5   2.0000     -10.226183      -278.2686
   6   2.0000      -0.813972       -22.1493
   7   2.0000      -0.756417       -20.5831
   8   2.0000      -0.725946       -19.7540
   9   2.0000      -0.640202       -17.4208
  10   2.0000      -0.595650       -16.2085
  11   2.0000      -0.517893       -14.0926
  12   2.0000      -0.481780       -13.1099
  13   2.0000      -0.460156       -12.5215
  14   2.0000      -0.426841       -11.6149
  15   2.0000      -0.426224       -11.5981
  16   2.0000      -0.422611       -11.4998
  17   2.0000      -0.403725       -10.9859
  18   2.0000      -0.379286       -10.3209
  19   2.0000      -0.364254        -9.9119
  20   2.0000      -0.284743        -7.7483
  21   2.0000      -0.261328        -7.1111
  22   2.0000      -0.227173        -6.1817
  23   0.0000       0.000376         0.0102
  24   0.0000       0.039489         1.0746
  25   0.0000       0.062218         1.6930
  26   0.0000       0.074057         2.0152
  27   0.0000       0.107448         2.9238

MULLIKEN ATOMIC CHARGES
-----------------------
   0 C :   -0.090193
   1 C :   -0.089455
   2 C :   -0.071922
   3 C :   -0.095779
   4 C :   -0.095755
   5 C :   -0.071550
   6 H :    0.028655
   7 H :    0.028693
   8 H :    0.055401
   9 H :    0.062347
  10 H :    0.056219
  11 H :    0.054715
  12 H :    0.054629
  13 H :    0.056096
  14 H :    0.062091
  15 H :    0.055808
Sum of atomic charges:    0.0000000

LOEWDIN ATOMIC CHARGES
----------------------
   0 C :   -0.059083
   1 C :   -0.059230
   2 C :   -0.039582
   3 C :   -0.037677
   4 C :   -0.037938
   5 C :   -0.039760
   6 H :    0.031845
   7 H :    0.031845
   8 H :    0.027691
   9 H :    0.029544
  10 H :    0.024149
  11 H :    0.023386
  12 H :    0.023326
  13 H :    0.024095
  14 H :    0.029537
  15 H :    0.027852

  Mayer bond orders larger than 0.100000
B(  0-C ,  1-C ) :   1.9745 B(  0-C ,  5-C ) :   1.0518 B(  0-C ,  6-H ) :   0.9435
B(  1-C ,  2-C ) :   1.0523 B(  1-C ,  7-H ) :   0.9436 B(  2-C ,  3-C ) :   0.9534
B(  2-C ,  8-H ) :   0.9484 B(  2-C ,  9-H ) :   0.9456 B(  3-C ,  4-C ) :   1.1218
B(  3-C , 10-H ) :   0.9620 B(  3-C , 11-H ) :   0.9518 B(  4-C ,  5-C ) :   0.9537
B(  4-C , 12-H ) :   0.9518 B(  4-C , 13-H ) :   0.9619 B(  5-C , 14-H ) :   0.9455
B(  5-C , 15-H ) :   0.9483

Dispersion correction           -0.012365489
FINAL SINGLE POINT ENERGY      -234.068424584631

DIPOLE MOMENT
-------------
                                X             Y             Z
Electronic contribution:     -0.53287       1.83802      -0.26954
Nuclear contribution   :      0.55863      -1.92456       0.28232
                        -----------------------------------------
Total Dipole Moment    :      0.02576      -0.08654       0.01278
                        -----------------------------------------
Magnitude (a.u.)       :      0.09119
Magnitude (Debye)      :      0.23179

Dispersion correction in the Hessian             ... done   (      0.5 sec)

VIBRATIONAL FREQUENCIES
-----------------------

Scaling factor for frequencies =  1.000000000  (already applied!)

   0:         0.00 cm**-1
   1:         0.00 cm**-1
   2:         0.00 cm**-1
   3:         0.00 cm**-1
   4:         0.00 cm**-1
   5:         0.00 cm**-1
   6:      -271.70 cm**-1 ***imaginary mode***
   7:      -261.71 cm**-1 ***imaginary mode***
   8:      -172.85 cm**-1 ***imaginary mode***
   9:        81.14 cm**-1
  10:       289.51 cm**-1
  11:       299.12 cm**-1
  12:       433.20 cm**-1
  13:       511.18 cm**-1
  14:       578.35 cm**-1
  15:       623.65 cm**-1
  16:       682.06 cm**-1
  17:       780.58 cm**-1
  18:       807.42 cm**-1
  19:       903.24 cm**-1
  20:       916.88 cm**-1
  21:       920.99 cm**-1
  22:       951.80 cm**-1
  23:       955.21 cm**-1
  24:      1003.45 cm**-1
  25:      1038.93 cm**-1
  26:      1054.66 cm**-1
  27:      1057.16 cm**-1
  28:      1127.33 cm**-1
  29:      1161.31 cm**-1
  30:      1205.93 cm**-1
  31:      1239.98 cm**-1
  32:      1373.55 cm**-1
  33:      1393.37 cm**-1
  34:      1393.89 cm**-1
  35:      1427.97 cm**-1
  36:      1447.24 cm**-1
  37:      1814.44 cm**-1
  38:      3222.66 cm**-1
  39:      3242.47 cm**-1
  40:      3253.98 cm**-1
  41:      3255.65 cm**-1
  42:      3258.22 cm**-1
  43:      3262.16 cm**-1
  44:      3353.60 cm**-1
  45:      3354.42 cm**-1
  46:      3363.40 cm**-1
  47:      3377.44 cm**-1

IR SPECTRUM
-----------

 Mode   freq       eps      Int      T**2         TX        TY        TZ
       cm**-1   L/(mol*cm) km/mol    a.u.
----------------------------------------------------------------------------
  9:     81.14   0.000001    0.00  0.000003  (-0.000286  0.001619 -0.000588)
 10:    289.51   0.000056    0.28  0.000061  ( 0.001365 -0.007665  0.000013)
 11:    299.12   0.000604    3.05  0.000630  ( 0.015564  0.006849  0.018458)
 12:    433.20   0.000015    0.08  0.000011  (-0.001067  0.003049  0.000589)
 13:    511.18   0.005434   27.46  0.003317  (-0.003943 -0.009469 -0.056676)
 14:    578.35   0.000802    4.05  0.000433  (-0.006011 -0.004428 -0.019421)
 15:    623.65   0.000196    0.99  0.000098  ( 0.003019 -0.009392  0.000785)
 16:    682.06   0.000662    3.35  0.000303  ( 0.016803  0.004397 -0.001113)
 17:    780.58   0.000010    0.05  0.000004  (-0.001309  0.001256 -0.000880)
 18:    807.42   0.001176    5.94  0.000454  (-0.017300 -0.006973 -0.010320)
 19:    903.24   0.000050    0.25  0.000017  ( 0.001213 -0.003947  0.000523)
 20:    916.88   0.000816    4.12  0.000278  ( 0.004411 -0.015916  0.002188)
 21:    920.99   0.000118    0.60  0.000040  ( 0.003217  0.000034  0.005453)
 22:    951.80   0.000473    2.39  0.000155  (-0.011175 -0.002666  0.004804)
 23:    955.21   0.000053    0.27  0.000017  (-0.003896  0.000223  0.001493)
 24:   1003.45   0.000027    0.14  0.000008  ( 0.000763  0.000532  0.002735)
 25:   1038.93   0.000134    0.68  0.000040  ( 0.001713 -0.005906  0.001562)
 26:   1054.66   0.001764    8.91  0.000522  ( 0.001991 -0.003058 -0.022551)
 27:   1057.16   0.000054    0.27  0.000016  ( 0.001294 -0.003556  0.001250)
 28:   1127.33   0.002359   11.92  0.000653  ( 0.024548  0.006599 -0.002627)
 29:   1161.31   0.001480    7.48  0.000398  (-0.005336  0.019021 -0.002737)
 30:   1205.93   0.000000    0.00  0.000000  (-0.000271  0.000148 -0.000134)
 31:   1239.98   0.001792    9.06  0.000451  (-0.006046  0.020141 -0.002956)
 32:   1373.55   0.000806    4.07  0.000183  ( 0.012081  0.004062  0.004548)
 33:   1393.37   0.000613    3.10  0.000137  (-0.004404 -0.002906 -0.010461)
 34:   1393.89   0.000017    0.08  0.000004  ( 0.000562  0.000848  0.001647)
 35:   1427.97   0.000135    0.68  0.000029  ( 0.005153  0.001593 -0.000617)
 36:   1447.24   0.000018    0.09  0.000004  (-0.000595  0.001875 -0.000344)
 37:   1814.44   0.001331    6.72  0.000229  ( 0.004217 -0.014387  0.002027)
 38:   3222.66   0.000320    1.62  0.000031  (-0.005265 -0.001742  0.000449)
 39:   3242.47   0.005163   26.09  0.000497  (-0.006475  0.021112 -0.003044)
 40:   3253.98   0.004970   25.12  0.000477  ( 0.017301  0.002529 -0.013074)
 41:   3255.65   0.005084   25.69  0.000487  ( 0.020174  0.008890  0.001134)
 42:   3258.22   0.001450    7.33  0.000139  ( 0.007693 -0.008800  0.001496)
 43:   3262.16   0.004484   22.66  0.000429  ( 0.005253 -0.019751  0.003349)
 44:   3353.60   0.001414    7.15  0.000132  (-0.000877  0.000544  0.011426)
 45:   3354.42   0.000377    1.90  0.000035  (-0.001005  0.002342  0.005344)
 46:   3363.40   0.000177    0.89  0.000016  ( 0.001458 -0.003639  0.001018)
 47:   3377.44   0.002094   10.58  0.000193  (-0.006649 -0.003703 -0.011642)

--------------------------
THERMOCHEMISTRY AT 298.15K
--------------------------

Temperature         ... 298.15 K
Pressure            ... 1.00 atm
Total Mass          ... 82.15 AMU

Throughout the following assumptions are being made:
  (1) The electronic state is orbitally nondegenerate
  (2) There are no thermally accessible electronically excited states
  (3) Hindered rotations indicated by low frequency modes are not
      treated as such but are treated as vibrations and this may
      cause some error
  (4) All equations used are the standard statistical mechanics
      equations for an ideal gas
  (5) All vibrations are strictly harmonic

freq.      81.14  E(vib)   ...       0.48
freq.     289.51  E(vib)   ...       0.27
freq.     299.12  E(vib)   ...       0.26
freq.     433.20  E(vib)   ...       0.17
freq.     511.18  E(vib)   ...       0.14
freq.     578.35  E(vib)   ...       0.11
freq.     623.65  E(vib)   ...       0.09
freq.     682.06  E(vib)   ...       0.08
freq.     780.58  E(vib)   ...       0.05
freq.     807.42  E(vib)   ...       0.05
freq.     903.24  E(vib)   ...       0.03
freq.     916.88  E(vib)   ...       0.03
freq.     920.99  E(vib)   ...       0.03
freq.     951.80  E(vib)   ...       0.03
freq.     955.21  E(vib)   ...       0.03
freq.    1003.45  E(vib)   ...       0.02
freq.    1038.93  E(vib)   ...       0.02
freq.    1054.66  E(vib)   ...       0.02
freq.    1057.16  E(vib)   ...       0.02
freq.    1127.33  E(vib)   ...       0.01
freq.    1161.31  E(vib)   ...       0.01
freq.    1205.93  E(vib)   ...       0.01
freq.    1239.98  E(vib)   ...       0.01
freq.    1373.55  E(vib)   ...       0.01
freq.    1393.37  E(vib)   ...       0.00
freq.    1393.89  E(vib)   ...       0.00
freq.    1427.97  E(vib)   ...       0.00
freq.    1447.24  E(vib)   ...       0.00
freq.    1814.44  E(vib)   ...       0.00
freq.    3222.66  E(vib)   ...       0.00
freq.    3242.47  E(vib)   ...       0.00
freq.    3253.98  E(vib)   ...       0.00
freq.    3255.65  E(vib)   ...       0.00
freq.    3258.22  E(vib)   ...       0.00
freq.    3262.16  E(vib)   ...       0.00
freq.    3353.60  E(vib)   ...       0.00
freq.    3354.42  E(vib)   ...       0.00
freq.    3363.40  E(vib)   ...       0.00
freq.    3377.44  E(vib)   ...       0.00

------------
INNER ENERGY
------------

The inner energy is: U= E(el) + E(ZPE) + E(vib) + E(rot) + E(trans)
    E(el)   - is the total energy from the electronic structure calculation
              = E(kin-el) + E(nuc-el) + E(el-el) + E(nuc-nuc)
    E(ZPE)  - the the zero temperature vibrational energy from the frequency calculation
    E(vib)  - the the finite temperature correction to E(ZPE) due to population
              of excited vibrational states
    E(rot)  - is the rotational thermal energy
    E(trans)- is the translational thermal energy

Summary of contributions to the inner energy U:
Electronic energy                ...   -234.06842458 Eh
Zero point energy                ...      0.13764125 Eh      86.37 kcal/mol
Thermal vibrational correction   ...      0.00320039 Eh       2.01 kcal/mol
Thermal rotational correction    ...      0.00141627 Eh       0.89 kcal/mol
Thermal translational correction ...      0.00141627 Eh       0.89 kcal/mol
-----------------------------------------------------------------------
Total thermal energy                   -233.92475041 Eh

Summary of corrections to the electronic energy:
(perhaps to be used in another calculation)
Total thermal correction                  0.00603293 Eh       3.79 kcal/mol
Non-thermal (ZPE) correction              0.13764125 Eh      86.37 kcal/mol
-----------------------------------------------------------------------
Total correction                          0.14367418 Eh      90.16 kcal/mol

--------
ENTHALPY
--------

The enthalpy is H = U + kB*T
                kB is Boltzmann's constant
Total free energy                 ...   -233.92475041 Eh
Thermal Enthalpy correction       ...      0.00094421 Eh       0.59 kcal/mol
-----------------------------------------------------------------------
Total Enthalpy                    ...   -233.92380620 Eh

Note: Only C1 symmetry has been detected, increase convergence thresholds
      if your molecule has a higher symmetry. Symmetry factor of 1.0 is
      used for the rotational entropy correction.

Note: Rotational entropy computed according to Herzberg
Infrared and Raman Spectra, Chapter V,1, Van Nostrand Reinhold, 1945
Point Group:  C1, Symmetry Number:   1
Rotational constants in cm-1:     0.142218     0.117713     0.070336

Vibrational entropy computed according to the QRRHO of S. Grimme
Chem.Eur.J. 2012 18 9955

-------
ENTROPY
-------

The entropy contributions are T*S = T*(S(el)+S(vib)+S(rot)+S(trans))
     S(el)   - electronic entropy
     S(vib)  - vibrational entropy
     S(rot)  - rotational entropy
     S(trans)- translational entropy
The entropies will be listed as multiplied by the temperature to get
units of energy

Electronic entropy                ...      0.00000000 Eh      0.00 kcal/mol
Vibrational entropy               ...      0.00501866 Eh      3.15 kcal/mol
Rotational entropy                ...      0.01269477 Eh      7.97 kcal/mol
Translational entropy             ...      0.01859270 Eh     11.67 kcal/mol
-----------------------------------------------------------------------
Final entropy term                ...      0.03630613 Eh     22.78 kcal/mol

In case the symmetry of your molecule has not been determined correctly
or in case you have a reason to use a different symmetry number we print
out the resulting rotational entropy values for sn=1,12 :
 --------------------------------------------------------
|  sn= 1 | S(rot)=       0.01269477 Eh      7.97 kcal/mol|
|  sn= 2 | S(rot)=       0.01204031 Eh      7.56 kcal/mol|
|  sn= 3 | S(rot)=       0.01165748 Eh      7.32 kcal/mol|
|  sn= 4 | S(rot)=       0.01138585 Eh      7.14 kcal/mol|
|  sn= 5 | S(rot)=       0.01117517 Eh      7.01 kcal/mol|
|  sn= 6 | S(rot)=       0.01100302 Eh      6.90 kcal/mol|
|  sn= 7 | S(rot)=       0.01085748 Eh      6.81 kcal/mol|
|  sn= 8 | S(rot)=       0.01073140 Eh      6.73 kcal/mol|
|  sn= 9 | S(rot)=       0.01062019 Eh      6.66 kcal/mol|
|  sn=10 | S(rot)=       0.01052071 Eh      6.60 kcal/mol|
|  sn=11 | S(rot)=       0.01043072 Eh      6.55 kcal/mol|
|  sn=12 | S(rot)=       0.01034857 Eh      6.49 kcal/mol|
 --------------------------------------------------------

-------------------
GIBBS FREE ENERGY
-------------------

The Gibbs free energy is G = H - T*S

Total enthalpy                    ...   -233.92380620 Eh
Total entropy correction          ...     -0.03630613 Eh    -22.78 kcal/mol
-----------------------------------------------------------------------

                             ****ORCA TERMINATED NORMALLY****
TOTAL RUN TIME: 0 days 0 hours 0 minutes 50 seconds 633 msec
