                         Program Version 5.0.4 -  RELEASE  -
|  1> ! OptTS Freq PBE0 RIJCOSX D3BJ def2-SVP def2/J
|  2> %geom
|  3> Calc_Hess true
|  4> Recalc_Hess 20
|  5> Trust -0.1
|  6> MaxIter 100
|  7> end
|  8> %geom
|  9> modify_internal
| 10> { B 2 3 A } end
| 11> end
| 12> %geom
| 13> modify_internal
| 14> { B 4 5 A } end
| 15> end
| 16> %output
| 17> xyzfile=True
| 18> end
| 19> %scf
| 20> maxiter 250
| 21> end
| 22> %output
| 23> Print[P_Hirshfeld] = 1
| 24> end
| 25> % maxcore
| 26> 4000
| 27> %pal nprocs 8
| 28> end
| 29> *xyz 0 1
| 30> C    0.21691329   1.60460999  -0.32497021
| 31> C   -1.04732083   1.27369177  -0.09473722
| 32> C   -1.62831632  -0.03815331   0.20796981
| 33> C   -0.13152271  -1.43969970   0.70397151
| 34> C    0.91791491  -1.28631025  -0.29598329
| 35> C    1.41785520   0.76284308  -0.32489174
| 36> H    0.43087808   2.65044352  -0.53531113
| 37> H   -1.78927335   2.06821229  -0.13872352
| 38> H   -2.23949274  -0.06286165   1.09976819
| 39> H   -2.09578334  -0.53005289  -0.63514457
| 40> H    0.13238736  -1.17084313   1.71569032
| 41> H   -0.73674022  -2.33441240   0.63385143
| 42> H    1.89424474  -1.67355913  -0.03409577
| 43> H    0.63258584  -1.48267876  -1.31865598
| 44> H    2.01962098   0.84035436   0.57163014
| 45> H    2.00616909   0.81871620  -1.23039797
| 46> *
| 47>
| 48>                          ****END OF INPUT****
 Total Charge           Charge          ....    0
 Multiplicity           Mult            ....    1
 Number of Electrons    NEL             ....   46
Dispersion correction           -0.012365489
FINAL SINGLE POINT ENERGY      -234.068424592145
Dispersion correction            ... done
Dispersion correction in the Hessian             ... done   (      0.5 sec)
Dispersion correction           -0.012370825
FINAL SINGLE POINT ENERGY      -234.066014722824
Dispersion correction            ... done
Dispersion correction           -0.012374305
FINAL SINGLE POINT ENERGY      -234.062978636870
FINAL SINGLE POINT ENERGY      -234.060821615221
FINAL SINGLE POINT ENERGY      -234.058124380952
FINAL SINGLE POINT ENERGY      -234.055768778560
FINAL SINGLE POINT ENERGY      -234.053590594025
FINAL SINGLE POINT ENERGY      -234.051676905041
FINAL SINGLE POINT ENERGY      -234.050004383029
FINAL SINGLE POINT ENERGY      -234.048522604778
FINAL SINGLE POINT ENERGY      -234.090300715776
FINAL SINGLE POINT ENERGY      -234.090409741632
FINAL SINGLE POINT ENERGY      -234.090503218074
FINAL SINGLE POINT ENERGY      -234.090581874838
FINAL SINGLE POINT ENERGY      -234.090646325240
FINAL SINGLE POINT ENERGY      -234.090697012439
FINAL SINGLE POINT ENERGY      -234.090734186828
Dispersion correction           -0.013038421
FINAL SINGLE POINT ENERGY      -234.090757952997
Dispersion correction            ... done
Dispersion correction           -0.013039307
FINAL SINGLE POINT ENERGY      -234.090768251725
Dispersion correction            ... done
                    ***********************HURRAY********************

CARTESIAN COORDINATES (ANGSTROEM)
---------------------------------
  C      0.380822    1.580833   -0.114061
  C     -0.944519    1.298351    0.278134
  C     -1.605214    0.168632   -0.145066
  C     -0.224569   -1.489972    0.646671
  C      1.069336   -1.213647    0.265535
  C      1.089920    0.743178   -0.942944
  H      0.916658    2.370971    0.421936
  H     -1.371566    1.883181    1.099283
  H     -2.585557   -0.084703    0.267408
  H     -1.376773   -0.282750   -1.111513
  H     -0.555274   -1.282901    1.665639
  H     -0.813489   -2.230812    0.100339
  H      1.774301   -0.784510    0.979233
  H      1.516055   -1.733881   -0.585302
  H      2.150801    0.924449   -1.135562
  H      0.579189    0.133880   -1.689761

 Multiplicity           Mult            ....    1
 Number of Electrons    NEL             ....   46
 Basis Dimension        Dim             ....  134

ORBITAL ENERGIES
----------------

  NO   OCC          E(Eh)            E(eV)
   0   2.0000     -10.240587      -278.6605
   1   2.0000     -10.240505      -278.6583
   2   2.0000     -10.234880      -278.5052
   3   2.0000     -10.234359      -278.4911
   4   2.0000     -10.227974      -278.3173
   5   2.0000     -10.227621      -278.3077
   6   2.0000      -0.824978       -22.4488
   7   2.0000      -0.760326       -20.6895
   8   2.0000      -0.731006       -19.8917
   9   2.0000      -0.632987       -17.2244
  10   2.0000      -0.588285       -16.0081
  11   2.0000      -0.527361       -14.3502
  12   2.0000      -0.504788       -13.7360
  13   2.0000      -0.475968       -12.9518
  14   2.0000      -0.442083       -12.0297
  15   2.0000      -0.419745       -11.4218
  16   2.0000      -0.415807       -11.3147
  17   2.0000      -0.374013       -10.1774
  18   2.0000      -0.365487        -9.9454
  19   2.0000      -0.358033        -9.7426
  20   2.0000      -0.349538        -9.5114
  21   2.0000      -0.240214        -6.5365
  22   2.0000      -0.239861        -6.5269
  23   0.0000      -0.017301        -0.4708
  24   0.0000       0.015282         0.4158
  25   0.0000       0.071408         1.9431
  26   0.0000       0.084810         2.3078
  27   0.0000       0.109033         2.9669

MULLIKEN ATOMIC CHARGES
-----------------------
   0 C :   -0.071674
   1 C :   -0.071370
   2 C :   -0.066074
   3 C :   -0.114709
   4 C :   -0.114800
   5 C :   -0.066091
   6 H :    0.024817
   7 H :    0.024690
   8 H :    0.053244
   9 H :    0.058628
  10 H :    0.060959
  11 H :    0.054773
  12 H :    0.060899
  13 H :    0.054882
  14 H :    0.053244
  15 H :    0.058580
Sum of atomic charges:    0.0000000

LOEWDIN ATOMIC CHARGES
----------------------
   0 C :   -0.064054
   1 C :   -0.064151
   2 C :   -0.026135
   3 C :   -0.060783
   4 C :   -0.060735
   5 C :   -0.026190
   6 H :    0.030669
   7 H :    0.030632
   8 H :    0.029748
   9 H :    0.030220
  10 H :    0.030644
  11 H :    0.029770
  12 H :    0.030604
  13 H :    0.029813
  14 H :    0.029738
  15 H :    0.030207

  Mayer bond orders larger than 0.100000
B(  0-C ,  1-C ) :   1.3303 B(  0-C ,  5-C ) :   1.6179 B(  0-C ,  6-H ) :   0.9714
B(  1-C ,  2-C ) :   1.6174 B(  1-C ,  7-H ) :   0.9714 B(  2-C ,  3-C ) :   0.3672
B(  2-C ,  5-C ) :   0.1335 B(  2-C ,  8-H ) :   0.9537 B(  2-C ,  9-H ) :   0.9328
B(  3-C ,  4-C ) :   1.6833 B(  3-C , 10-H ) :   0.9531 B(  3-C , 11-H ) :   0.9541
B(  4-C ,  5-C ) :   0.3667 B(  4-C , 12-H ) :   0.9532 B(  4-C , 13-H ) :   0.9541
B(  5-C , 14-H ) :   0.9537 B(  5-C , 15-H ) :   0.9327

Dispersion correction           -0.013039359
FINAL SINGLE POINT ENERGY      -234.090768686127

DIPOLE MOMENT
-------------
                                X             Y             Z
Electronic contribution:     -0.47740       2.23838      -0.00778
Nuclear contribution   :      0.51418      -2.38634       0.02572
                        -----------------------------------------
Total Dipole Moment    :      0.03678      -0.14795       0.01794
                        -----------------------------------------
Magnitude (a.u.)       :      0.15351
Magnitude (Debye)      :      0.39019

Dispersion correction in the Hessian             ... done   (      0.5 sec)

VIBRATIONAL FREQUENCIES
-----------------------

Scaling factor for frequencies =  1.000000000  (already applied!)

   0:         0.00 cm**-1
   1:         0.00 cm**-1
   2:         0.00 cm**-1
   3:         0.00 cm**-1
   4:         0.00 cm**-1
   5:         0.00 cm**-1
   6:      -488.59 cm**-1 ***imaginary mode***
   7:       131.62 cm**-1
   8:       201.55 cm**-1
   9:       277.56 cm**-1
  10:       366.86 cm**-1
  11:       396.11 cm**-1
  12:       477.31 cm**-1
  13:       582.33 cm**-1
  14:       594.98 cm**-1
  15:       679.11 cm**-1
  16:       777.80 cm**-1
  17:       807.24 cm**-1
  18:       833.29 cm**-1
  19:       905.70 cm**-1
  20:       939.69 cm**-1
  21:       971.04 cm**-1
  22:       979.36 cm**-1
  23:       989.46 cm**-1
  24:       994.70 cm**-1
  25:      1013.68 cm**-1
  26:      1093.85 cm**-1
  27:      1101.67 cm**-1
  28:      1222.55 cm**-1
  29:      1263.00 cm**-1
  30:      1264.60 cm**-1
  31:      1314.19 cm**-1
  32:      1404.44 cm**-1
  33:      1435.82 cm**-1
  34:      1473.69 cm**-1
  35:      1547.84 cm**-1
  36:      1624.58 cm**-1
  37:      1627.38 cm**-1
  38:      3165.02 cm**-1
  39:      3170.44 cm**-1
  40:      3172.81 cm**-1
  41:      3179.42 cm**-1
  42:      3182.42 cm**-1
  43:      3197.57 cm**-1
  44:      3262.82 cm**-1
  45:      3267.91 cm**-1
  46:      3272.38 cm**-1
  47:      3283.22 cm**-1

IR SPECTRUM
-----------

 Mode   freq       eps      Int      T**2         TX        TY        TZ
       cm**-1   L/(mol*cm) km/mol    a.u.
----------------------------------------------------------------------------
  7:    131.62   0.000154    0.78  0.000365  (-0.017966 -0.003640  0.005351)
  8:    201.55   0.000276    1.40  0.000428  ( 0.019394  0.004269 -0.005806)
  9:    277.56   0.000091    0.46  0.000102  (-0.003387  0.006365 -0.007056)
 10:    366.86   0.000027    0.14  0.000023  (-0.001615  0.003826 -0.002428)
 11:    396.11   0.000511    2.58  0.000402  (-0.018861 -0.003974  0.005551)
 12:    477.31   0.000004    0.02  0.000002  ( 0.001474  0.000353 -0.000442)
 13:    582.33   0.000000    0.00  0.000000  (-0.000466 -0.000107  0.000132)
 14:    594.98   0.000311    1.57  0.000163  (-0.004247  0.005475 -0.010741)
 15:    679.11   0.005992   30.28  0.002753  (-0.017500  0.037836 -0.031867)
 16:    777.80   0.000119    0.60  0.000048  ( 0.006568  0.001219 -0.001773)
 17:    807.24   0.000136    0.68  0.000052  (-0.001209 -0.003187 -0.006386)
 18:    833.29   0.000101    0.51  0.000038  (-0.000981  0.005972  0.001047)
 19:    905.70   0.001354    6.84  0.000467  (-0.020294 -0.004296  0.006018)
 20:    939.69   0.003276   16.56  0.001088  (-0.010172  0.028055 -0.014052)
 21:    971.04   0.001304    6.59  0.000419  ( 0.006878 -0.014325  0.012903)
 22:    979.36   0.000099    0.50  0.000031  ( 0.005525  0.000231 -0.000916)
 23:    989.46   0.008492   42.91  0.002678  ( 0.016901 -0.039229  0.029215)
 24:    994.70   0.000079    0.40  0.000025  ( 0.004397  0.001526 -0.001742)
 25:   1013.68   0.001566    7.91  0.000482  (-0.020640 -0.004314  0.006123)
 26:   1093.85   0.000191    0.96  0.000054  ( 0.006928  0.001457 -0.002060)
 27:   1101.67   0.000480    2.43  0.000136  ( 0.001153 -0.010937 -0.003881)
 28:   1222.55   0.000010    0.05  0.000003  (-0.001457 -0.000353  0.000516)
 29:   1263.00   0.000154    0.78  0.000038  (-0.005797 -0.001141  0.001749)
 30:   1264.60   0.000028    0.14  0.000007  ( 0.000686 -0.002337  0.000968)
 31:   1314.19   0.000286    1.45  0.000068  (-0.001328  0.008046  0.001220)
 32:   1404.44   0.000439    2.22  0.000098  ( 0.009283  0.001976 -0.002732)
 33:   1435.82   0.000576    2.91  0.000125  (-0.010514 -0.002208  0.003122)
 34:   1473.69   0.002056   10.39  0.000435  ( 0.001067  0.015079  0.014380)
 35:   1547.84   0.000272    1.37  0.000055  (-0.002554  0.003590 -0.005950)
 36:   1624.58   0.000084    0.43  0.000016  (-0.003589 -0.000972  0.001538)
 37:   1627.38   0.000363    1.84  0.000070  ( 0.002956 -0.002644  0.007347)
 38:   3165.02   0.000764    3.86  0.000075  (-0.008148 -0.001731  0.002443)
 39:   3170.44   0.001643    8.30  0.000162  ( 0.001906  0.006975  0.010461)
 40:   3172.81   0.000174    0.88  0.000017  ( 0.003830  0.000599 -0.001428)
 41:   3179.42   0.000260    1.32  0.000026  ( 0.000593 -0.004799 -0.001475)
 42:   3182.42   0.001582    7.99  0.000155  (-0.011705 -0.002431  0.003490)
 43:   3197.57   0.001992   10.07  0.000194  (-0.000579  0.012190  0.006742)
 44:   3262.82   0.000043    0.22  0.000004  ( 0.001911  0.000350 -0.000587)
 45:   3267.91   0.000447    2.26  0.000043  (-0.000898 -0.002947 -0.005759)
 46:   3272.38   0.001235    6.24  0.000118  ( 0.010227  0.002194 -0.002896)
 47:   3283.22   0.001069    5.40  0.000102  (-0.001526 -0.004892 -0.008682)

--------------------------
THERMOCHEMISTRY AT 298.15K
--------------------------

Temperature         ... 298.15 K
Pressure            ... 1.00 atm
Total Mass          ... 82.15 AMU

Throughout the following assumptions are being made:
  (1) The electronic state is orbitally nondegenerate
  (2) There are no thermally accessible electronically excited states
  (3) Hindered rotations indicated by low frequency modes are not
      treated as such but are treated as vibrations and this may
      cause some error
  (4) All equations used are the standard statistical mechanics
      equations for an ideal gas
  (5) All vibrations are strictly harmonic

freq.     131.62  E(vib)   ...       0.42
freq.     201.55  E(vib)   ...       0.35
freq.     277.56  E(vib)   ...       0.28
freq.     366.86  E(vib)   ...       0.22
freq.     396.11  E(vib)   ...       0.20
freq.     477.31  E(vib)   ...       0.15
freq.     582.33  E(vib)   ...       0.11
freq.     594.98  E(vib)   ...       0.10
freq.     679.11  E(vib)   ...       0.08
freq.     777.80  E(vib)   ...       0.05
freq.     807.24  E(vib)   ...       0.05
freq.     833.29  E(vib)   ...       0.04
freq.     905.70  E(vib)   ...       0.03
freq.     939.69  E(vib)   ...       0.03
freq.     971.04  E(vib)   ...       0.03
freq.     979.36  E(vib)   ...       0.03
freq.     989.46  E(vib)   ...       0.02
freq.     994.70  E(vib)   ...       0.02
freq.    1013.68  E(vib)   ...       0.02
freq.    1093.85  E(vib)   ...       0.02
freq.    1101.67  E(vib)   ...       0.02
freq.    1222.55  E(vib)   ...       0.01
freq.    1263.00  E(vib)   ...       0.01
freq.    1264.60  E(vib)   ...       0.01
freq.    1314.19  E(vib)   ...       0.01
freq.    1404.44  E(vib)   ...       0.00
freq.    1435.82  E(vib)   ...       0.00
freq.    1473.69  E(vib)   ...       0.00
freq.    1547.84  E(vib)   ...       0.00
freq.    1624.58  E(vib)   ...       0.00
freq.    1627.38  E(vib)   ...       0.00
freq.    3165.02  E(vib)   ...       0.00
freq.    3170.44  E(vib)   ...       0.00
freq.    3172.81  E(vib)   ...       0.00
freq.    3179.42  E(vib)   ...       0.00
freq.    3182.42  E(vib)   ...       0.00
freq.    3197.57  E(vib)   ...       0.00
freq.    3262.82  E(vib)   ...       0.00
freq.    3267.91  E(vib)   ...       0.00
freq.    3272.38  E(vib)   ...       0.00
freq.    3283.22  E(vib)   ...       0.00

------------
INNER ENERGY
------------

The inner energy is: U= E(el) + E(ZPE) + E(vib) + E(rot) + E(trans)
    E(el)   - is the total energy from the electronic structure calculation
              = E(kin-el) + E(nuc-el) + E(el-el) + E(nuc-nuc)
    E(ZPE)  - the the zero temperature vibrational energy from the frequency calculation
    E(vib)  - the the finite temperature correction to E(ZPE) due to population
              of excited vibrational states
    E(rot)  - is the rotational thermal energy
    E(trans)- is the translational thermal energy

Summary of contributions to the inner energy U:
Electronic energy                ...   -234.09076869 Eh
Zero point energy                ...      0.13998655 Eh      87.84 kcal/mol
Thermal vibrational correction   ...      0.00368821 Eh       2.31 kcal/mol
Thermal rotational correction    ...      0.00141627 Eh       0.89 kcal/mol
Thermal translational correction ...      0.00141627 Eh       0.89 kcal/mol
-----------------------------------------------------------------------
Total thermal energy                   -233.94426139 Eh

Summary of corrections to the electronic energy:
(perhaps to be used in another calculation)
Total thermal correction                  0.00652075 Eh       4.09 kcal/mol
Non-thermal (ZPE) correction              0.13998655 Eh      87.84 kcal/mol
-----------------------------------------------------------------------
Total correction                          0.14650730 Eh      91.93 kcal/mol

--------
ENTHALPY
--------

The enthalpy is H = U + kB*T
                kB is Boltzmann's constant
Total free energy                 ...   -233.94426139 Eh
Thermal Enthalpy correction       ...      0.00094421 Eh       0.59 kcal/mol
-----------------------------------------------------------------------
Total Enthalpy                    ...   -233.94331718 Eh

Note: Only C1 symmetry has been detected, increase convergence thresholds
      if your molecule has a higher symmetry. Symmetry factor of 1.0 is
      used for the rotational entropy correction.

Note: Rotational entropy computed according to Herzberg
Infrared and Raman Spectra, Chapter V,1, Van Nostrand Reinhold, 1945
Point Group:  C1, Symmetry Number:   1
Rotational constants in cm-1:     0.144489     0.114573     0.075138

Vibrational entropy computed according to the QRRHO of S. Grimme
Chem.Eur.J. 2012 18 9955

-------
ENTROPY
-------

The entropy contributions are T*S = T*(S(el)+S(vib)+S(rot)+S(trans))
     S(el)   - electronic entropy
     S(vib)  - vibrational entropy
     S(rot)  - rotational entropy
     S(trans)- translational entropy
The entropies will be listed as multiplied by the temperature to get
units of energy

Electronic entropy                ...      0.00000000 Eh      0.00 kcal/mol
Vibrational entropy               ...      0.00582279 Eh      3.65 kcal/mol
Rotational entropy                ...      0.01266887 Eh      7.95 kcal/mol
Translational entropy             ...      0.01859270 Eh     11.67 kcal/mol
-----------------------------------------------------------------------
Final entropy term                ...      0.03708436 Eh     23.27 kcal/mol

In case the symmetry of your molecule has not been determined correctly
or in case you have a reason to use a different symmetry number we print
out the resulting rotational entropy values for sn=1,12 :
 --------------------------------------------------------
|  sn= 1 | S(rot)=       0.01266887 Eh      7.95 kcal/mol|
|  sn= 2 | S(rot)=       0.01201441 Eh      7.54 kcal/mol|
|  sn= 3 | S(rot)=       0.01163158 Eh      7.30 kcal/mol|
|  sn= 4 | S(rot)=       0.01135996 Eh      7.13 kcal/mol|
|  sn= 5 | S(rot)=       0.01114927 Eh      7.00 kcal/mol|
|  sn= 6 | S(rot)=       0.01097712 Eh      6.89 kcal/mol|
|  sn= 7 | S(rot)=       0.01083158 Eh      6.80 kcal/mol|
|  sn= 8 | S(rot)=       0.01070550 Eh      6.72 kcal/mol|
|  sn= 9 | S(rot)=       0.01059429 Eh      6.65 kcal/mol|
|  sn=10 | S(rot)=       0.01049481 Eh      6.59 kcal/mol|
|  sn=11 | S(rot)=       0.01040482 Eh      6.53 kcal/mol|
|  sn=12 | S(rot)=       0.01032267 Eh      6.48 kcal/mol|
 --------------------------------------------------------

-------------------
GIBBS FREE ENERGY
-------------------

The Gibbs free energy is G = H - T*S

Total enthalpy                    ...   -233.94331718 Eh

                             ****ORCA TERMINATED NORMALLY****
TOTAL RUN TIME: 0 days 0 hours 18 minutes 12 seconds 255 msec
