                         Program Version 5.0.4 -  RELEASE  -
|  1> ! EnGrad PBE0 RIJCOSX D3BJ def2-SVP def2/J
|  2> %output
|  3> xyzfile=True
|  4> end
|  5> %scf
|  6> maxiter 250
|  7> end
|  8> %output
|  9> Print[P_Hirshfeld] = 1
| 10> end
| 11> % maxcore
| 12> 4000
| 13> *xyz 0 2
| 14> O   -2.70373000   0.59911000   2.07742000
| 15> O   -0.41387000  -0.42367000   0.82685000
| 16> C   -0.73539000   0.13338000  -0.41828000
| 17> C    0.14896000   0.85516000   0.53050000
| 18> C    1.53752000   0.46710000   0.23583000
| 19> C    1.36539000  -0.62141000  -0.51738000
| 20> C    0.11334000  -0.67681000  -1.33602000
| 21> H   -1.94111000   0.01632000   1.83821000
| 22> H   -1.77758000   0.41926000  -0.59394000
| 23> H   -0.20056000   1.69991000   1.12925000
| 24> H    2.43060000   0.77688000   0.77538000
| 25> H    2.19149000  -1.30136000  -0.75560000
| 26> H    0.28400000  -0.25245000  -2.33948000
| 27> H   -0.29906000  -1.69129000  -1.45273000
| 28> *
| 29>
| 30>                          ****END OF INPUT****

CARTESIAN COORDINATES (ANGSTROEM)
---------------------------------
  O     -2.703730    0.599110    2.077420
  O     -0.413870   -0.423670    0.826850
  C     -0.735390    0.133380   -0.418280
  C      0.148960    0.855160    0.530500
  C      1.537520    0.467100    0.235830
  C      1.365390   -0.621410   -0.517380
  C      0.113340   -0.676810   -1.336020
  H     -1.941110    0.016320    1.838210
  H     -1.777580    0.419260   -0.593940
  H     -0.200560    1.699910    1.129250
  H      2.430600    0.776880    0.775380
  H      2.191490   -1.301360   -0.755600
  H      0.284000   -0.252450   -2.339480
  H     -0.299060   -1.691290   -1.452730

 Total Charge           Charge          ....    0
 Multiplicity           Mult            ....    2
 Number of Electrons    NEL             ....   53
 Basis Dimension        Dim             ....  133

ORBITAL ENERGIES
----------------
                 SPIN UP ORBITALS
  NO   OCC          E(Eh)            E(eV)
   0   1.0000     -19.238905      -523.5172
   1   1.0000     -19.236031      -523.4390
   2   1.0000     -10.301477      -280.3174
   3   1.0000     -10.300689      -280.2960
   4   1.0000     -10.252111      -278.9741
   5   1.0000     -10.247294      -278.8430
   6   1.0000     -10.238208      -278.5958
   7   1.0000      -1.142139       -31.0792
   8   1.0000      -0.987782       -26.8789
   9   1.0000      -0.848615       -23.0920
  10   1.0000      -0.762887       -20.7592
  11   1.0000      -0.689886       -18.7728
  12   1.0000      -0.607295       -16.5253
  13   1.0000      -0.576515       -15.6878
  14   1.0000      -0.571842       -15.5606
  15   1.0000      -0.483772       -13.1641
  16   1.0000      -0.480266       -13.0687
  17   1.0000      -0.454065       -12.3557
  18   1.0000      -0.440481       -11.9861
  19   1.0000      -0.415479       -11.3057
  20   1.0000      -0.409126       -11.1329
  21   1.0000      -0.397421       -10.8144
  22   1.0000      -0.380776       -10.3615
  23   1.0000      -0.340883        -9.2759
  24   1.0000      -0.319989        -8.7073
  25   1.0000      -0.316134        -8.6025
  26   1.0000      -0.249982        -6.8023
  27   0.0000      -0.012821        -0.3489
  28   0.0000       0.071699         1.9510
  29   0.0000       0.098528         2.6811
  30   0.0000       0.106175         2.8892
  31   0.0000       0.115603         3.1457

                 SPIN DOWN ORBITALS
  NO   OCC          E(Eh)            E(eV)
   0   1.0000     -19.236130      -523.4417
   1   1.0000     -19.212156      -522.7893
   2   1.0000     -10.301461      -280.3170
   3   1.0000     -10.300677      -280.2957
   4   1.0000     -10.252105      -278.9740
   5   1.0000     -10.247293      -278.8430
   6   1.0000     -10.238206      -278.5957
   7   1.0000      -1.142188       -31.0805
   8   1.0000      -0.910790       -24.7839
   9   1.0000      -0.848360       -23.0850
  10   1.0000      -0.762867       -20.7587
  11   1.0000      -0.689895       -18.7730
  12   1.0000      -0.607229       -16.5235
  13   1.0000      -0.576072       -15.6757
  14   1.0000      -0.571765       -15.5585
  15   1.0000      -0.482284       -13.1236
  16   1.0000      -0.480183       -13.0664
  17   1.0000      -0.448574       -12.2063
  18   1.0000      -0.424827       -11.5601
  19   1.0000      -0.412153       -11.2152
  20   1.0000      -0.407169       -11.0796
  21   1.0000      -0.380175       -10.3451
  22   1.0000      -0.340555        -9.2670
  23   1.0000      -0.315591        -8.5877
  24   1.0000      -0.292451        -7.9580
  25   1.0000      -0.249643        -6.7931
  26   0.0000      -0.109937        -2.9915
  27   0.0000      -0.012823        -0.3489
  28   0.0000       0.072649         1.9769
  29   0.0000       0.098911         2.6915
  30   0.0000       0.106765         2.9052

MULLIKEN ATOMIC CHARGES AND SPIN POPULATIONS
--------------------------------------------
   0 O :   -0.226431    1.025502
   1 O :   -0.350320   -0.001490
   2 C :   -0.011880    0.000168
   3 C :    0.080439    0.000691
   4 C :    0.016167    0.000010
   5 C :   -0.128186   -0.000040
   6 C :    0.112196    0.000239
   7 H :    0.197137   -0.025635
   8 H :    0.055382    0.000100
   9 H :    0.051952    0.000477
  10 H :    0.041066    0.000007
  11 H :    0.032420   -0.000032
  12 H :    0.067334    0.000013
  13 H :    0.062722   -0.000010
Sum of atomic charges         :    0.0000000

LOEWDIN ATOMIC CHARGES AND SPIN POPULATIONS
-------------------------------------------
   0 O :   -0.092404    0.997594
   1 O :   -0.153811   -0.002122
   2 C :    0.050101    0.000181
   3 C :    0.054888    0.000364
   4 C :   -0.062249    0.000010
   5 C :    0.002922    0.000063
   6 C :   -0.044694    0.000172
   7 H :    0.038013    0.003218
   8 H :    0.025186    0.000187
   9 H :    0.028668    0.000365
  10 H :    0.035767   -0.000003
  11 H :    0.025545   -0.000026
  12 H :    0.045603   -0.000004
  13 H :    0.046466   -0.000000

  Mayer bond orders larger than 0.100000
B(  0-O ,  7-H ) :   0.9319 B(  1-O ,  2-C ) :   0.9191 B(  1-O ,  3-C ) :   0.8908
B(  1-O ,  7-H ) :   0.1022 B(  2-C ,  3-C ) :   1.0025 B(  2-C ,  6-C ) :   0.9961
B(  2-C ,  8-H ) :   0.9720 B(  3-C ,  4-C ) :   0.9708 B(  3-C ,  9-H ) :   0.9833
B(  4-C ,  5-C ) :   1.8395 B(  4-C , 10-H ) :   0.9948 B(  5-C ,  6-C ) :   1.0228
B(  5-C , 11-H ) :   0.9659 B(  6-C , 12-H ) :   0.9243 B(  6-C , 13-H ) :   0.9247

Dispersion correction           -0.009693173
FINAL SINGLE POINT ENERGY      -344.362351271228
Dispersion correction            ... done

DIPOLE MOMENT
-------------
                                X             Y             Z
Electronic contribution:     -1.17455       0.56964       2.19891
Nuclear contribution   :      1.93042      -0.59992      -3.06493
                        -----------------------------------------
Total Dipole Moment    :      0.75586      -0.03028      -0.86602
                        -----------------------------------------
Magnitude (a.u.)       :      1.14989
Magnitude (Debye)      :      2.92278

Rotational constants in cm-1:     0.202739     0.059384     0.051491
Rotational constants in MHz :  6077.965108  1780.300224  1543.667368

                             ****ORCA TERMINATED NORMALLY****
TOTAL RUN TIME: 0 days 0 hours 3 minutes 32 seconds 176 msec
