                         Program Version 5.0.4 -  RELEASE  -
|  1> ! EnGrad PBE0 RIJCOSX D3BJ def2-SVP def2/J
|  2> %output
|  3> xyzfile=True
|  4> end
|  5> %scf
|  6> maxiter 250
|  7> end
|  8> %output
|  9> Print[P_Hirshfeld] = 1
| 10> end
| 11> % maxcore
| 12> 4000
| 13> *xyz 0 2
| 14> O   -2.72703307   0.56297822   2.12041718
| 15> O   -0.55728444  -0.40091521   0.92919571
| 16> C   -0.72922097   0.14463903  -0.43164772
| 17> C    0.15537355   0.86852622   0.51513120
| 18> C    1.54602049   0.47894833   0.22285672
| 19> C    1.51381311  -0.64827274  -0.62103926
| 20> C    0.11571544  -0.67096944  -1.34569304
| 21> H   -1.95656117   0.01204902   1.85804487
| 22> H   -1.77549552   0.42385734  -0.60072044
| 23> H   -0.19363374   1.70782800   1.12101714
| 24> H    2.44091494   0.78632618   0.75932921
| 25> H    2.16601417  -1.32819281  -0.71422518
| 26> H    0.30969429  -0.25541507  -2.34818830
| 27> H   -0.30788634  -1.68081336  -1.46393953
| 28> *
| 29>
| 30>                          ****END OF INPUT****

CARTESIAN COORDINATES (ANGSTROEM)
---------------------------------
  O     -2.727033    0.562978    2.120417
  O     -0.557284   -0.400915    0.929196
  C     -0.729221    0.144639   -0.431648
  C      0.155374    0.868526    0.515131
  C      1.546020    0.478948    0.222857
  C      1.513813   -0.648273   -0.621039
  C      0.115715   -0.670969   -1.345693
  H     -1.956561    0.012049    1.858045
  H     -1.775496    0.423857   -0.600720
  H     -0.193634    1.707828    1.121017
  H      2.440915    0.786326    0.759329
  H      2.166014   -1.328193   -0.714225
  H      0.309694   -0.255415   -2.348188
  H     -0.307886   -1.680813   -1.463940

 Total Charge           Charge          ....    0
 Multiplicity           Mult            ....    2
 Number of Electrons    NEL             ....   53
 Basis Dimension        Dim             ....  133

ORBITAL ENERGIES
----------------
                 SPIN UP ORBITALS
  NO   OCC          E(Eh)            E(eV)
   0   1.0000     -19.235319      -523.4196
   1   1.0000     -19.222072      -523.0592
   2   1.0000     -10.310269      -280.5567
   3   1.0000     -10.307961      -280.4939
   4   1.0000     -10.262074      -279.2452
   5   1.0000     -10.259052      -279.1630
   6   1.0000     -10.258480      -279.1474
   7   1.0000      -1.089580       -29.6490
   8   1.0000      -0.975067       -26.5329
   9   1.0000      -0.844669       -22.9846
  10   1.0000      -0.753434       -20.5020
  11   1.0000      -0.704031       -19.1577
  12   1.0000      -0.607691       -16.5361
  13   1.0000      -0.593205       -16.1419
  14   1.0000      -0.565696       -15.3934
  15   1.0000      -0.488797       -13.3008
  16   1.0000      -0.470588       -12.8053
  17   1.0000      -0.439453       -11.9581
  18   1.0000      -0.429622       -11.6906
  19   1.0000      -0.424011       -11.5379
  20   1.0000      -0.419349       -11.4111
  21   1.0000      -0.385909       -10.5011
  22   1.0000      -0.375629       -10.2214
  23   1.0000      -0.349118        -9.5000
  24   1.0000      -0.311174        -8.4675
  25   1.0000      -0.301870        -8.2143
  26   1.0000      -0.262477        -7.1424
  27   0.0000      -0.036764        -1.0004
  28   0.0000       0.072561         1.9745
  29   0.0000       0.083893         2.2828
  30   0.0000       0.101238         2.7548
  31   0.0000       0.111898         3.0449

                 SPIN DOWN ORBITALS
  NO   OCC          E(Eh)            E(eV)
   0   1.0000     -19.235439      -523.4229
   1   1.0000     -19.195474      -522.3354
   2   1.0000     -10.310255      -280.5563
   3   1.0000     -10.307952      -280.4936
   4   1.0000     -10.262069      -279.2451
   5   1.0000     -10.259048      -279.1629
   6   1.0000     -10.258485      -279.1476
   7   1.0000      -1.089517       -29.6473
   8   1.0000      -0.898962       -24.4620
   9   1.0000      -0.844159       -22.9707
  10   1.0000      -0.753415       -20.5015
  11   1.0000      -0.703969       -19.1560
  12   1.0000      -0.607666       -16.5354
  13   1.0000      -0.593152       -16.1405
  14   1.0000      -0.565229       -15.3807
  15   1.0000      -0.486908       -13.2494
  16   1.0000      -0.469919       -12.7872
  17   1.0000      -0.435419       -11.8484
  18   1.0000      -0.424016       -11.5381
  19   1.0000      -0.420370       -11.4388
  20   1.0000      -0.410069       -11.1585
  21   1.0000      -0.375641       -10.2217
  22   1.0000      -0.347934        -9.4678
  23   1.0000      -0.304885        -8.2963
  24   1.0000      -0.279326        -7.6009
  25   1.0000      -0.261737        -7.1222
  26   0.0000      -0.097311        -2.6480
  27   0.0000      -0.036760        -1.0003
  28   0.0000       0.073562         2.0017
  29   0.0000       0.084085         2.2881
  30   0.0000       0.101654         2.7661

MULLIKEN ATOMIC CHARGES AND SPIN POPULATIONS
--------------------------------------------
   0 O :   -0.242514    1.025019
   1 O :   -0.397763   -0.001659
   2 C :    0.011334   -0.000184
   3 C :    0.079298    0.000524
   4 C :    0.027064    0.000424
   5 C :   -0.034235   -0.000495
   6 C :    0.066619    0.000215
   7 H :    0.196701   -0.024406
   8 H :    0.069836   -0.000109
   9 H :    0.065534    0.000658
  10 H :    0.045475   -0.000012
  11 H :   -0.036732    0.000016
  12 H :    0.079099    0.000016
  13 H :    0.070285   -0.000007
Sum of atomic charges         :    0.0000000

LOEWDIN ATOMIC CHARGES AND SPIN POPULATIONS
-------------------------------------------
   0 O :   -0.101920    0.996557
   1 O :   -0.212131   -0.002514
   2 C :    0.075544    0.000043
   3 C :    0.077487    0.000318
   4 C :   -0.047788    0.000297
   5 C :    0.049266   -0.000322
   6 C :   -0.043619    0.000126
   7 H :    0.018502    0.005080
   8 H :    0.032976    0.000037
   9 H :    0.034820    0.000404
  10 H :    0.033533   -0.000003
  11 H :   -0.012313   -0.000014
  12 H :    0.049182   -0.000006
  13 H :    0.046461   -0.000003

  Mayer bond orders larger than 0.100000
B(  0-O ,  7-H ) :   0.9235 B(  1-O ,  2-C ) :   0.9042 B(  1-O ,  3-C ) :   0.8652
B(  1-O ,  7-H ) :   0.1214 B(  2-C ,  3-C ) :   1.0079 B(  2-C ,  6-C ) :   1.0091
B(  2-C ,  8-H ) :   0.9623 B(  3-C ,  4-C ) :   1.0000 B(  3-C ,  9-H ) :   0.9747
B(  4-C ,  5-C ) :   1.8012 B(  4-C , 10-H ) :   0.9931 B(  5-C ,  6-C ) :   1.0023
B(  5-C , 11-H ) :   1.0044 B(  6-C , 12-H ) :   0.9293 B(  6-C , 13-H ) :   0.9325

Dispersion correction           -0.009694939
FINAL SINGLE POINT ENERGY      -344.358474887304
Dispersion correction            ... done

DIPOLE MOMENT
-------------
                                X             Y             Z
Electronic contribution:     -0.94803       0.55660       2.00331
Nuclear contribution   :      1.96396      -0.59965      -3.08470
                        -----------------------------------------
Total Dipole Moment    :      1.01592      -0.04304      -1.08139
                        -----------------------------------------
Magnitude (a.u.)       :      1.48437
Magnitude (Debye)      :      3.77297

Rotational constants in cm-1:     0.200426     0.056164     0.049150
Rotational constants in MHz :  6008.632856  1683.749080  1473.479205

                             ****ORCA TERMINATED NORMALLY****
TOTAL RUN TIME: 0 days 0 hours 14 minutes 33 seconds 753 msec
