                         Program Version 5.0.4 -  RELEASE  -
|  1> ! EnGrad PBE0 RIJCOSX D3BJ def2-SVP def2/J
|  2> %output
|  3> xyzfile=True
|  4> end
|  5> %scf
|  6> maxiter 250
|  7> end
|  8> %output
|  9> Print[P_Hirshfeld] = 1
| 10> end
| 11> % maxcore
| 12> 4000
| 13> *xyz 0 2
| 14> O   -2.45904451   0.07451510   1.55079977
| 15> O   -0.53773821  -0.30100126   0.83921307
| 16> C   -0.72933499   0.21161368  -0.44956484
| 17> C    0.15105134   0.90423217   0.52236619
| 18> C    1.52352217   0.43558197   0.27037540
| 19> C    1.37121589  -0.61969740  -0.53164472
| 20> C    0.10570341  -0.66196657  -1.32536638
| 21> H   -2.08023587   0.13522306   2.43586844
| 22> H   -1.72836765   0.57455436  -0.70455185
| 23> H   -0.15542611   1.78970954   1.08308956
| 24> H    2.41632792   0.71631215   0.82728671
| 25> H    2.18807453  -1.30985957  -0.76784025
| 26> H    0.27032735  -0.28101568  -2.34772871
| 27> H   -0.33607528  -1.66810546  -1.40230629
| 28> *
| 29>
| 30>                          ****END OF INPUT****

CARTESIAN COORDINATES (ANGSTROEM)
---------------------------------
  O     -2.459045    0.074515    1.550800
  O     -0.537738   -0.301001    0.839213
  C     -0.729335    0.211614   -0.449565
  C      0.151051    0.904232    0.522366
  C      1.523522    0.435582    0.270375
  C      1.371216   -0.619697   -0.531645
  C      0.105703   -0.661967   -1.325366
  H     -2.080236    0.135223    2.435868
  H     -1.728368    0.574554   -0.704552
  H     -0.155426    1.789710    1.083090
  H      2.416328    0.716312    0.827287
  H      2.188075   -1.309860   -0.767840
  H      0.270327   -0.281016   -2.347729
  H     -0.336075   -1.668105   -1.402306

 Total Charge           Charge          ....    0
 Multiplicity           Mult            ....    2
 Number of Electrons    NEL             ....   53
 Basis Dimension        Dim             ....  133

ORBITAL ENERGIES
----------------
                 SPIN UP ORBITALS
  NO   OCC          E(Eh)            E(eV)
   0   1.0000     -19.240249      -523.5538
   1   1.0000     -19.199846      -522.4544
   2   1.0000     -10.294237      -280.1204
   3   1.0000     -10.290315      -280.0137
   4   1.0000     -10.246145      -278.8118
   5   1.0000     -10.244303      -278.7617
   6   1.0000     -10.238473      -278.6030
   7   1.0000      -1.138821       -30.9889
   8   1.0000      -0.959616       -26.1125
   9   1.0000      -0.847355       -23.0577
  10   1.0000      -0.755111       -20.5476
  11   1.0000      -0.683114       -18.5885
  12   1.0000      -0.603890       -16.4327
  13   1.0000      -0.572111       -15.5679
  14   1.0000      -0.567373       -15.4390
  15   1.0000      -0.479838       -13.0571
  16   1.0000      -0.472377       -12.8540
  17   1.0000      -0.443776       -12.0758
  18   1.0000      -0.430525       -11.7152
  19   1.0000      -0.413457       -11.2507
  20   1.0000      -0.400974       -10.9111
  21   1.0000      -0.385400       -10.4873
  22   1.0000      -0.359814        -9.7910
  23   1.0000      -0.329945        -8.9783
  24   1.0000      -0.294023        -8.0008
  25   1.0000      -0.285535        -7.7698
  26   1.0000      -0.244881        -6.6636
  27   0.0000      -0.008964        -0.2439
  28   0.0000       0.075280         2.0485
  29   0.0000       0.098772         2.6877
  30   0.0000       0.108547         2.9537
  31   0.0000       0.113480         3.0880

                 SPIN DOWN ORBITALS
  NO   OCC          E(Eh)            E(eV)
   0   1.0000     -19.234098      -523.3864
   1   1.0000     -19.175210      -521.7840
   2   1.0000     -10.294334      -280.1231
   3   1.0000     -10.290473      -280.0180
   4   1.0000     -10.246120      -278.8111
   5   1.0000     -10.244043      -278.7546
   6   1.0000     -10.238374      -278.6003
   7   1.0000      -1.130891       -30.7731
   8   1.0000      -0.896082       -24.3836
   9   1.0000      -0.843874       -22.9630
  10   1.0000      -0.754787       -20.5388
  11   1.0000      -0.679927       -18.5018
  12   1.0000      -0.602999       -16.4084
  13   1.0000      -0.570231       -15.5168
  14   1.0000      -0.562776       -15.3139
  15   1.0000      -0.473919       -12.8960
  16   1.0000      -0.471238       -12.8230
  17   1.0000      -0.436741       -11.8843
  18   1.0000      -0.418686       -11.3930
  19   1.0000      -0.408873       -11.1260
  20   1.0000      -0.389462       -10.5978
  21   1.0000      -0.380497       -10.3538
  22   1.0000      -0.332682        -9.0527
  23   1.0000      -0.303687        -8.2637
  24   1.0000      -0.262329        -7.1383
  25   1.0000      -0.255804        -6.9608
  26   0.0000      -0.060882        -1.6567
  27   0.0000      -0.007539        -0.2052
  28   0.0000       0.076971         2.0945
  29   0.0000       0.101104         2.7512
  30   0.0000       0.109704         2.9852

MULLIKEN ATOMIC CHARGES AND SPIN POPULATIONS
--------------------------------------------
   0 O :   -0.267650    0.877434
   1 O :   -0.287891    0.138943
   2 C :    0.018891   -0.009153
   3 C :    0.071050   -0.005969
   4 C :    0.021537    0.001750
   5 C :   -0.135895    0.014884
   6 C :    0.108440    0.000075
   7 H :    0.160791   -0.022204
   8 H :    0.065529    0.001874
   9 H :    0.042650    0.003241
  10 H :    0.035904    0.000091
  11 H :    0.032969   -0.000861
  12 H :    0.065770   -0.000133
  13 H :    0.067906    0.000029
Sum of atomic charges         :   -0.0000000

LOEWDIN ATOMIC CHARGES AND SPIN POPULATIONS
-------------------------------------------
   0 O :   -0.167364    0.834523
   1 O :   -0.087826    0.150832
   2 C :    0.058220   -0.003964
   3 C :    0.050349   -0.002512
   4 C :   -0.057295    0.002263
   5 C :   -0.003154    0.011266
   6 C :   -0.047275    0.000644
   7 H :    0.042789    0.004316
   8 H :    0.028698    0.000932
   9 H :    0.026558    0.001689
  10 H :    0.034321    0.000295
  11 H :    0.026354   -0.000093
  12 H :    0.045819   -0.000134
  13 H :    0.049805   -0.000057

  Mayer bond orders larger than 0.100000
B(  0-O ,  1-O ) :   0.1952 B(  0-O ,  7-H ) :   0.9926 B(  1-O ,  2-C ) :   0.9090
B(  1-O ,  3-C ) :   0.9027 B(  2-C ,  3-C ) :   1.0196 B(  2-C ,  6-C ) :   0.9989
B(  2-C ,  8-H ) :   0.9631 B(  3-C ,  4-C ) :   0.9697 B(  3-C ,  9-H ) :   0.9781
B(  4-C ,  5-C ) :   1.8308 B(  4-C , 10-H ) :   0.9955 B(  5-C ,  6-C ) :   1.0217
B(  5-C , 11-H ) :   0.9666 B(  6-C , 12-H ) :   0.9255 B(  6-C , 13-H ) :   0.9213

Dispersion correction           -0.009811239
FINAL SINGLE POINT ENERGY      -344.369944803227
Dispersion correction            ... done

DIPOLE MOMENT
-------------
                                X             Y             Z
Electronic contribution:     -0.93625       0.37192       1.79716
Nuclear contribution   :      1.71110      -0.01544      -2.06278
                        -----------------------------------------
Total Dipole Moment    :      0.77486       0.35648      -0.26561
                        -----------------------------------------
Magnitude (a.u.)       :      0.89332
Magnitude (Debye)      :      2.27065

Rotational constants in cm-1:     0.198992     0.071456     0.060378
Rotational constants in MHz :  5965.639977  2142.182436  1810.096919

                             ****ORCA TERMINATED NORMALLY****
TOTAL RUN TIME: 0 days 0 hours 1 minutes 8 seconds 566 msec
