                         Program Version 5.0.4 -  RELEASE  -
|  1> ! EnGrad PBE0 RIJCOSX D3BJ def2-SVP def2/J
|  2> %output
|  3> xyzfile=True
|  4> end
|  5> %scf
|  6> maxiter 250
|  7> end
|  8> %output
|  9> Print[P_Hirshfeld] = 1
| 10> end
| 11> % maxcore
| 12> 4000
| 13> *xyz 0 2
| 14> O   -2.50155561   0.07574955   1.55323967
| 15> O   -0.61839826  -0.29181068   0.90369296
| 16> C   -0.73407617   0.21523146  -0.45213224
| 17> C    0.14704245   0.90496849   0.51846099
| 18> C    1.52653478   0.43364437   0.27690753
| 19> C    1.49364140  -0.64145358  -0.62227456
| 20> C    0.10714674  -0.66149304  -1.32010761
| 21> H   -2.07421663   0.14277716   2.44630877
| 22> H   -1.73035467   0.57170922  -0.69765140
| 23> H   -0.15507357   1.79227471   1.08095134
| 24> H    2.41618215   0.71642308   0.82844147
| 25> H    2.18912410  -1.30920418  -0.76656638
| 26> H    0.27018454  -0.28065616  -2.34678808
| 27> H   -0.33632043  -1.66787170  -1.40205301
| 28> *
| 29>
| 30>                          ****END OF INPUT****

CARTESIAN COORDINATES (ANGSTROEM)
---------------------------------
  O     -2.501556    0.075750    1.553240
  O     -0.618398   -0.291811    0.903693
  C     -0.734076    0.215231   -0.452132
  C      0.147042    0.904968    0.518461
  C      1.526535    0.433644    0.276908
  C      1.493641   -0.641454   -0.622275
  C      0.107147   -0.661493   -1.320108
  H     -2.074217    0.142777    2.446309
  H     -1.730355    0.571709   -0.697651
  H     -0.155074    1.792275    1.080951
  H      2.416182    0.716423    0.828441
  H      2.189124   -1.309204   -0.766566
  H      0.270185   -0.280656   -2.346788
  H     -0.336320   -1.667872   -1.402053

 Total Charge           Charge          ....    0
 Multiplicity           Mult            ....    2
 Number of Electrons    NEL             ....   53
 Basis Dimension        Dim             ....  133

ORBITAL ENERGIES
----------------
                 SPIN UP ORBITALS
  NO   OCC          E(Eh)            E(eV)
   0   1.0000     -19.240937      -523.5725
   1   1.0000     -19.195811      -522.3446
   2   1.0000     -10.300001      -280.2773
   3   1.0000     -10.295317      -280.1498
   4   1.0000     -10.253054      -278.9998
   5   1.0000     -10.252133      -278.9747
   6   1.0000     -10.251339      -278.9531
   7   1.0000      -1.106856       -30.1191
   8   1.0000      -0.947095       -25.7718
   9   1.0000      -0.838558       -22.8183
  10   1.0000      -0.746386       -20.3102
  11   1.0000      -0.694117       -18.8879
  12   1.0000      -0.602198       -16.3866
  13   1.0000      -0.586715       -15.9653
  14   1.0000      -0.560946       -15.2641
  15   1.0000      -0.480301       -13.0697
  16   1.0000      -0.464959       -12.6522
  17   1.0000      -0.440331       -11.9820
  18   1.0000      -0.423921       -11.5355
  19   1.0000      -0.419475       -11.4145
  20   1.0000      -0.403102       -10.9690
  21   1.0000      -0.375912       -10.2291
  22   1.0000      -0.367422        -9.9981
  23   1.0000      -0.332489        -9.0475
  24   1.0000      -0.285982        -7.7820
  25   1.0000      -0.277336        -7.5467
  26   1.0000      -0.245094        -6.6693
  27   0.0000      -0.024022        -0.6537
  28   0.0000       0.076359         2.0778
  29   0.0000       0.093260         2.5377
  30   0.0000       0.103238         2.8093
  31   0.0000       0.111593         3.0366

                 SPIN DOWN ORBITALS
  NO   OCC          E(Eh)            E(eV)
   0   1.0000     -19.234397      -523.3946
   1   1.0000     -19.171146      -521.6734
   2   1.0000     -10.300021      -280.2778
   3   1.0000     -10.295520      -280.1553
   4   1.0000     -10.253051      -278.9997
   5   1.0000     -10.252264      -278.9783
   6   1.0000     -10.250851      -278.9398
   7   1.0000      -1.098026       -29.8788
   8   1.0000      -0.884590       -24.0709
   9   1.0000      -0.834480       -22.7074
  10   1.0000      -0.746323       -20.3085
  11   1.0000      -0.690467       -18.7886
  12   1.0000      -0.601201       -16.3595
  13   1.0000      -0.585843       -15.9416
  14   1.0000      -0.556609       -15.1461
  15   1.0000      -0.472950       -12.8696
  16   1.0000      -0.463235       -12.6053
  17   1.0000      -0.432972       -11.7818
  18   1.0000      -0.418340       -11.3836
  19   1.0000      -0.417131       -11.3507
  20   1.0000      -0.385512       -10.4903
  21   1.0000      -0.374869       -10.2007
  22   1.0000      -0.338089        -9.1999
  23   1.0000      -0.301278        -8.1982
  24   1.0000      -0.260095        -7.0776
  25   1.0000      -0.255650        -6.9566
  26   0.0000      -0.052246        -1.4217
  27   0.0000      -0.019778        -0.5382
  28   0.0000       0.078896         2.1469
  29   0.0000       0.095467         2.5978
  30   0.0000       0.104240         2.8365

MULLIKEN ATOMIC CHARGES AND SPIN POPULATIONS
--------------------------------------------
   0 O :   -0.284914    0.870293
   1 O :   -0.314921    0.145939
   2 C :    0.036965   -0.011313
   3 C :    0.071658   -0.000793
   4 C :    0.023731   -0.018043
   5 C :   -0.062956    0.034400
   6 C :    0.074668   -0.001563
   7 H :    0.171387   -0.023864
   8 H :    0.072445    0.002299
   9 H :    0.051870    0.002662
  10 H :    0.035927    0.001056
  11 H :   -0.020431   -0.001526
  12 H :    0.070772    0.000172
  13 H :    0.073799    0.000281
Sum of atomic charges         :    0.0000000

LOEWDIN ATOMIC CHARGES AND SPIN POPULATIONS
-------------------------------------------
   0 O :   -0.193622    0.829031
   1 O :   -0.123222    0.160015
   2 C :    0.076823   -0.006026
   3 C :    0.061286   -0.000515
   4 C :   -0.047531   -0.011862
   5 C :    0.028221    0.025940
   6 C :   -0.045545    0.000196
   7 H :    0.057690   -0.000292
   8 H :    0.032542    0.001085
   9 H :    0.030125    0.001357
  10 H :    0.030140    0.000329
  11 H :   -0.002606    0.000432
  12 H :    0.046670    0.000173
  13 H :    0.049027    0.000136

  Mayer bond orders larger than 0.100000
B(  0-O ,  1-O ) :   0.2101 B(  0-O ,  7-H ) :   0.9837 B(  1-O ,  2-C ) :   0.8967
B(  1-O ,  3-C ) :   0.8791 B(  2-C ,  3-C ) :   1.0212 B(  2-C ,  6-C ) :   1.0051
B(  2-C ,  8-H ) :   0.9600 B(  3-C ,  4-C ) :   0.9836 B(  3-C ,  9-H ) :   0.9724
B(  4-C ,  5-C ) :   1.8059 B(  4-C , 10-H ) :   0.9962 B(  5-C ,  6-C ) :   1.0053
B(  5-C , 11-H ) :   0.9999 B(  6-C , 12-H ) :   0.9285 B(  6-C , 13-H ) :   0.9285

Dispersion correction           -0.009788682
FINAL SINGLE POINT ENERGY      -344.363618103391
Dispersion correction            ... done

DIPOLE MOMENT
-------------
                                X             Y             Z
Electronic contribution:     -0.84529       0.34382       1.69316
Nuclear contribution   :      1.75027      -0.00379      -2.04845
                        -----------------------------------------
Total Dipole Moment    :      0.90498       0.34003      -0.35529
                        -----------------------------------------
Magnitude (a.u.)       :      1.02997
Magnitude (Debye)      :      2.61798

Rotational constants in cm-1:     0.198362     0.067932     0.057857
Rotational constants in MHz :  5946.738824  2036.562481  1734.502201

                             ****ORCA TERMINATED NORMALLY****
TOTAL RUN TIME: 0 days 0 hours 1 minutes 7 seconds 666 msec
