                         Program Version 5.0.4 -  RELEASE  -
|  1> ! EnGrad PBE0 RIJCOSX D3BJ def2-SVP def2/J
|  2> %output
|  3> xyzfile=True
|  4> end
|  5> %scf
|  6> maxiter 250
|  7> end
|  8> %output
|  9> Print[P_Hirshfeld] = 1
| 10> end
| 11> % maxcore
| 12> 4000
| 13> *xyz 0 2
| 14> O   -2.50421345   0.07929794   1.56135107
| 15> O   -0.61427744  -0.28626881   0.89620663
| 16> C   -0.73022441   0.21196101  -0.44377053
| 17> C    0.14491750   0.89921830   0.51921920
| 18> C    1.52845417   0.41809207   0.26499662
| 19> C    1.45832403  -0.60071898  -0.60706585
| 20> C    0.11528841  -0.66422800  -1.32072853
| 21> H   -2.07762126   0.14104510   2.44079937
| 22> H   -1.73120099   0.57224590  -0.69864548
| 23> H   -0.15431869   1.79277201   1.07997029
| 24> H    2.41671313   0.71742486   0.83014477
| 25> H    2.21567077  -1.33220075  -0.77336439
| 26> H    0.26824399  -0.28053347  -2.34655031
| 27> H   -0.33588747  -1.66781731  -1.40211045
| 28> *
| 29>
| 30>                          ****END OF INPUT****

CARTESIAN COORDINATES (ANGSTROEM)
---------------------------------
  O     -2.504213    0.079298    1.561351
  O     -0.614277   -0.286269    0.896207
  C     -0.730224    0.211961   -0.443771
  C      0.144918    0.899218    0.519219
  C      1.528454    0.418092    0.264997
  C      1.458324   -0.600719   -0.607066
  C      0.115288   -0.664228   -1.320729
  H     -2.077621    0.141045    2.440799
  H     -1.731201    0.572246   -0.698645
  H     -0.154319    1.792772    1.079970
  H      2.416713    0.717425    0.830145
  H      2.215671   -1.332201   -0.773364
  H      0.268244   -0.280533   -2.346550
  H     -0.335887   -1.667817   -1.402110

 Total Charge           Charge          ....    0
 Multiplicity           Mult            ....    2
 Number of Electrons    NEL             ....   53
 Basis Dimension        Dim             ....  133

ORBITAL ENERGIES
----------------
                 SPIN UP ORBITALS
  NO   OCC          E(Eh)            E(eV)
   0   1.0000     -19.240634      -523.5643
   1   1.0000     -19.196823      -522.3721
   2   1.0000     -10.297794      -280.2172
   3   1.0000     -10.293319      -280.0955
   4   1.0000     -10.250681      -278.9352
   5   1.0000     -10.249175      -278.8942
   6   1.0000     -10.245461      -278.7932
   7   1.0000      -1.116452       -30.3802
   8   1.0000      -0.952217       -25.9111
   9   1.0000      -0.846909       -23.0456
  10   1.0000      -0.747735       -20.3469
  11   1.0000      -0.688798       -18.7431
  12   1.0000      -0.602500       -16.3948
  13   1.0000      -0.575361       -15.6564
  14   1.0000      -0.562540       -15.3075
  15   1.0000      -0.481848       -13.1117
  16   1.0000      -0.464942       -12.6517
  17   1.0000      -0.438298       -11.9267
  18   1.0000      -0.422733       -11.5032
  19   1.0000      -0.421008       -11.4562
  20   1.0000      -0.401941       -10.9374
  21   1.0000      -0.380349       -10.3498
  22   1.0000      -0.366130        -9.9629
  23   1.0000      -0.331734        -9.0269
  24   1.0000      -0.288923        -7.8620
  25   1.0000      -0.279997        -7.6191
  26   1.0000      -0.249836        -6.7984
  27   0.0000      -0.012075        -0.3286
  28   0.0000       0.074371         2.0237
  29   0.0000       0.096201         2.6178
  30   0.0000       0.107104         2.9144
  31   0.0000       0.109861         2.9895

                 SPIN DOWN ORBITALS
  NO   OCC          E(Eh)            E(eV)
   0   1.0000     -19.234284      -523.3915
   1   1.0000     -19.172085      -521.6990
   2   1.0000     -10.297832      -280.2182
   3   1.0000     -10.293506      -280.1006
   4   1.0000     -10.250665      -278.9348
   5   1.0000     -10.248827      -278.8848
   6   1.0000     -10.245480      -278.7937
   7   1.0000      -1.108010       -30.1505
   8   1.0000      -0.889451       -24.2032
   9   1.0000      -0.842974       -22.9385
  10   1.0000      -0.747562       -20.3422
  11   1.0000      -0.685176       -18.6446
  12   1.0000      -0.601636       -16.3713
  13   1.0000      -0.574242       -15.6259
  14   1.0000      -0.558053       -15.1854
  15   1.0000      -0.474347       -12.9076
  16   1.0000      -0.463643       -12.6164
  17   1.0000      -0.429100       -11.6764
  18   1.0000      -0.420746       -11.4491
  19   1.0000      -0.413449       -11.2505
  20   1.0000      -0.386745       -10.5239
  21   1.0000      -0.378767       -10.3068
  22   1.0000      -0.338216        -9.2033
  23   1.0000      -0.299757        -8.1568
  24   1.0000      -0.266105        -7.2411
  25   1.0000      -0.257752        -7.0138
  26   0.0000      -0.054050        -1.4708
  27   0.0000      -0.009317        -0.2535
  28   0.0000       0.076307         2.0764
  29   0.0000       0.098806         2.6886
  30   0.0000       0.108036         2.9398

MULLIKEN ATOMIC CHARGES AND SPIN POPULATIONS
--------------------------------------------
   0 O :   -0.276292    0.875310
   1 O :   -0.309758    0.140777
   2 C :    0.026795   -0.010353
   3 C :    0.063963   -0.001926
   4 C :    0.030330   -0.007987
   5 C :   -0.121515    0.022732
   6 C :    0.086345   -0.000550
   7 H :    0.167362   -0.022970
   8 H :    0.072221    0.002604
   9 H :    0.050476    0.002868
  10 H :    0.036989    0.000586
  11 H :    0.031173   -0.001192
  12 H :    0.069258   -0.000021
  13 H :    0.072654    0.000121
Sum of atomic charges         :    0.0000000

LOEWDIN ATOMIC CHARGES AND SPIN POPULATIONS
-------------------------------------------
   0 O :   -0.181892    0.833236
   1 O :   -0.114325    0.154653
   2 C :    0.069196   -0.005128
   3 C :    0.058827   -0.000682
   4 C :   -0.054596   -0.004362
   5 C :    0.001956    0.017000
   6 C :   -0.047194    0.000529
   7 H :    0.050624    0.001646
   8 H :    0.032194    0.001320
   9 H :    0.029311    0.001491
  10 H :    0.034192    0.000305
  11 H :    0.025138   -0.000035
  12 H :    0.047042    0.000006
  13 H :    0.049526    0.000022

  Mayer bond orders larger than 0.100000
B(  0-O ,  1-O ) :   0.2028 B(  0-O ,  7-H ) :   0.9874 B(  1-O ,  2-C ) :   0.9036
B(  1-O ,  3-C ) :   0.8858 B(  2-C ,  3-C ) :   1.0258 B(  2-C ,  6-C ) :   1.0028
B(  2-C ,  8-H ) :   0.9574 B(  3-C ,  4-C ) :   0.9741 B(  3-C ,  9-H ) :   0.9714
B(  4-C ,  5-C ) :   1.8231 B(  4-C , 10-H ) :   0.9958 B(  5-C ,  6-C ) :   1.0134
B(  5-C , 11-H ) :   0.9774 B(  6-C , 12-H ) :   0.9277 B(  6-C , 13-H ) :   0.9269

Dispersion correction           -0.009783778
FINAL SINGLE POINT ENERGY      -344.380838688681
Dispersion correction            ... done

DIPOLE MOMENT
-------------
                                X             Y             Z
Electronic contribution:     -0.89842       0.37847       1.73516
Nuclear contribution   :      1.78678      -0.04368      -2.06934
                        -----------------------------------------
Total Dipole Moment    :      0.88836       0.33479      -0.33417
                        -----------------------------------------
Magnitude (a.u.)       :      1.00645
Magnitude (Debye)      :      2.55819

Rotational constants in cm-1:     0.201465     0.068336     0.058158
Rotational constants in MHz :  6039.771293  2048.667790  1743.541696

                             ****ORCA TERMINATED NORMALLY****
TOTAL RUN TIME: 0 days 0 hours 1 minutes 5 seconds 326 msec
