   * xtb version 6.6.1 (8d0f1dd) compiled by 'conda@1efc2f54142f' on 2023-08-01
          program call               : /gpfs/fs1/home/copan/code/autode-practice/.pixi/envs/default/bin/xtb path_opt-1_xtb.xyz --chrg 0 --uhf 1 --opt --input xcontrol_path_opt-1_xtb

   ID    Z sym.   atoms
    1    8 O      1, 2
    2    6 C      3-7
    3    1 H      8-14
constraining bond 2 6 to    3.3874000 Å, actual value:    3.3874473 Å
constraining bond 1 2 to    1.4266000 Å, actual value:    1.4266085 Å

          :  Hamiltonian                  GFN2-xTB          :
 * total energy  :   -22.2449216 Eh     change       -0.6142642E-10 Eh
 * total energy  :   -22.2468664 Eh     change       -0.1944773E-02 Eh
 * total energy  :   -22.2470842 Eh     change       -0.2177514E-03 Eh
 * total energy  :   -22.2471450 Eh     change       -0.6081501E-04 Eh
 * total energy  :   -22.2472032 Eh     change       -0.5822032E-04 Eh
 * total energy  :   -22.2472592 Eh     change       -0.5602470E-04 Eh
 * total energy  :   -22.2473311 Eh     change       -0.7189457E-04 Eh
 * total energy  :   -22.2474041 Eh     change       -0.7296875E-04 Eh
 * total energy  :   -22.2472830 Eh     change        0.1210270E-03 Eh
 * total energy  :   -22.2474659 Eh     change       -0.1828527E-03 Eh
 * total energy  :   -22.2478781 Eh     change       -0.6589278E-05 Eh
 * total energy  :   -22.2478790 Eh     change       -0.9343502E-06 Eh
 * total energy  :   -22.2478885 Eh     change       -0.9446544E-05 Eh
 * total energy  :   -22.2478936 Eh     change       -0.5084902E-05 Eh
 * total energy  :   -22.2478986 Eh     change       -0.5015922E-05 Eh
 * total energy  :   -22.2479020 Eh     change       -0.3400479E-05 Eh
 * total energy  :   -22.2479032 Eh     change       -0.1180862E-05 Eh
 * total energy  :   -22.2479044 Eh     change       -0.1281529E-05 Eh
 * total energy  :   -22.2479050 Eh     change       -0.6145373E-06 Eh
   *** GEOMETRY OPTIMIZATION CONVERGED AFTER 36 ITERATIONS ***

 final structure:
================
14
 xtb: 6.6.1 (8d0f1dd)
O           -2.54858181893218       -0.59261556430661        0.75289703301343
O           -1.32259504865640        0.03514773801329        1.12654171733330
C           -0.59636439803106        0.39400036153924       -0.03026944873617
C            0.56634203959161        1.22007350049402        0.42274431971391
C            1.74646826108260        0.61541402120124        0.05293049505699
C            1.51214542535799       -0.55455567997890       -0.63197518550735
C            0.05096347923354       -0.81028433710359       -0.74915584563807
H           -3.05200609681045       -0.55048896273914        1.57590827281331
H           -1.27003618865932        0.95251853568745       -0.69944781441360
H            0.44484999154448        2.12136513559831        0.99005074195209
H            2.72299433279793        1.01299214142383        0.26909077742108
H            2.25526999461013       -1.21480272379813       -1.03854205580517
H           -0.26877280586639       -0.89051285559939       -1.79072217427810
H           -0.24066716726269       -1.73815131043173       -0.25004083292564

          :  Hamiltonian                  GFN2-xTB          :
         :: total energy             -22.247905048635 Eh    ::
         :: gradient norm              0.000399444211 Eh/a0 ::
         :: HOMO-LUMO gap              3.687416046400 eV    ::
         :: SCC energy               -22.496859236176 Eh    ::
         :: -> dispersion             -0.008657162187 Eh    ::
         :: repulsion energy           0.248940010097 Eh    ::

    * Orbital Energies and Occupations

         #    Occupation            Energy/Eh            Energy/eV
      -------------------------------------------------------------
         1        2.0000           -0.7177195             -19.5301
       ...           ...                  ...                  ...
         8        2.0000           -0.5690598             -15.4849
         9        2.0000           -0.5463257             -14.8663
        10        2.0000           -0.5418248             -14.7438
        11        2.0000           -0.5184525             -14.1078
        12        2.0000           -0.5111877             -13.9101
        13        2.0000           -0.4771641             -12.9843
        14        2.0000           -0.4627773             -12.5928
        15        2.0000           -0.4590037             -12.4901
        16        2.0000           -0.4546324             -12.3712
        17        2.0000           -0.4510745             -12.2744
        18        2.0000           -0.4322806             -11.7630
        19        2.0000           -0.4033658             -10.9761
        20        1.0000           -0.3170863              -8.6284 (HOMO)
        21                         -0.1815762              -4.9409 (LUMO)
        22                         -0.1396453              -3.7999
        23                          0.0653021               1.7770
        24                          0.0804559               2.1893
        25                          0.1138678               3.0985
        26                          0.1311612               3.5691
        27                          0.1430386               3.8923
        28                          0.1441434               3.9223
        29                          0.1622361               4.4147
        30                          0.2103155               5.7230
        31                          0.2453784               6.6771
       ...                                ...                  ...
        35                          0.6199405              16.8694
      -------------------------------------------------------------
                  HL-Gap            0.1355100 Eh            3.6874 eV

     #   Z          covCN         q      C6AA      α(0)
     1   8 O        1.734    -0.331    19.543     5.969
     2   8 O        1.778    -0.216    17.579     5.662
     3   6 C        3.774     0.126    18.555     6.138
     4   6 C        2.976    -0.057    29.414     8.896
     5   6 C        2.945    -0.028    28.701     8.787
     6   6 C        2.977    -0.042    29.030     8.838
     7   6 C        3.845    -0.069    21.792     6.640
     8   1 H        0.805     0.318     0.669     1.285
     9   1 H        0.923     0.043     2.403     2.424
    10   1 H        0.926     0.046     2.367     2.406
    11   1 H        0.926     0.041     2.430     2.438
    12   1 H        0.926     0.039     2.457     2.451
    13   1 H        0.924     0.054     2.275     2.359
    14   1 H        0.924     0.076     2.025     2.225

Wiberg/Mayer (AO) data.
largest (>0.10) Wiberg bond orders for each atom

     #   Z sym  total        # sym  WBO       # sym  WBO       # sym  WBO
 ---------------------------------------------------------------------------
     1   8 O    1.905 --     2 O    0.966     8 H    0.892
     2   8 O    2.011 --     1 O    0.966     3 C    0.964
     3   6 C    3.940 --     4 C    1.006     7 C    0.979     2 O    0.964
                             9 H    0.940
     4   6 C    3.779 --     5 C    1.484     3 C    1.006    10 H    0.973
                             6 C    0.206
     5   6 C    3.991 --     4 C    1.484     6 C    1.478    11 H    0.968
     6   6 C    3.789 --     5 C    1.478     7 C    1.057    12 H    0.974
                             4 C    0.206
     7   6 C    3.997 --     6 C    1.057     3 C    0.979    13 H    0.952
                            14 H    0.944
     8   1 H    0.899 --     1 O    0.892
     9   1 H    0.998 --     3 C    0.940
    10   1 H    0.998 --     4 C    0.973
    11   1 H    0.997 --     5 C    0.968
    12   1 H    0.998 --     6 C    0.974
    13   1 H    0.997 --     7 C    0.952
    14   1 H    0.994 --     7 C    0.944
 ---------------------------------------------------------------------------

molecular dipole:
                 x           y           z       tot (Debye)
 q only:        0.135       0.019      -0.137
   full:       -0.002       0.045      -0.052       0.174

           -------------------------------------------------
          | TOTAL ENERGY              -22.247905048635 Eh   |
          | GRADIENT NORM               0.000399444211 Eh/α |
          | HOMO-LUMO GAP               3.687416046400 eV   |
           -------------------------------------------------

 * finished run on 2025/05/23 at 12:05:43.970
