                         Program Version 5.0.4 -  RELEASE  -
|  1> ! LooseOpt PBE0 RIJCOSX D3BJ def2-SVP def2/J
|  2> %geom Constraints
|  3> { B 1 5 2.188689191475229 C }
|  4> { B 0 1 2.8532111120306625 C }
|  5>     end
|  6> end
|  7> %geom MaxIter 50 end
|  8> %output
|  9> xyzfile=True
| 10> end
| 11> %scf
| 12> maxiter 250
| 13> end
| 14> %output
| 15> Print[P_Hirshfeld] = 1
| 16> end
| 17> % maxcore
| 18> 4000
| 19> %pal nprocs 8
| 20> end
| 21> *xyz 0 2
| 22> O   -2.70373406   0.59910718   2.07742157
| 23> O   -0.41386735  -0.42367455   0.82685380
| 24> C   -0.73538777   0.13337588  -0.41827961
| 25> C    0.14895743   0.85515525   0.53049707
| 26> C    1.53752041   0.46710340   0.23583089
| 27> C    1.36539146  -0.62140995  -0.51738306
| 28> C    0.11333633  -0.67681440  -1.33601889
| 29> H   -1.94110875   0.01631551   1.83820865
| 30> H   -1.77758282   0.41925829  -0.59394002
| 31> H   -0.20056346   1.69990751   1.12924663
| 32> H    2.43060401   0.77687504   0.77537767
| 33> H    2.19149260  -1.30135888  -0.75559813
| 34> H    0.28400255  -0.25244574  -2.33948356
| 35> H   -0.29906061  -1.69129457  -1.45273300
| 36> *
| 37>
| 38>                          ****END OF INPUT****
 Total Charge           Charge          ....    0
 Multiplicity           Mult            ....    2
 Number of Electrons    NEL             ....   53
Dispersion correction           -0.009638865
FINAL SINGLE POINT ENERGY      -344.353283887464
Dispersion correction            ... done
Dispersion correction           -0.009637107
FINAL SINGLE POINT ENERGY      -344.354061977667
Dispersion correction            ... done
                    ***********************HURRAY********************

CARTESIAN COORDINATES (ANGSTROEM)
---------------------------------
  O     -2.726213    0.570774    2.114451
  O     -0.392502   -0.421189    0.806546
  C     -0.731060    0.142653   -0.429929
  C      0.155549    0.866074    0.518054
  C      1.544107    0.477054    0.225027
  C      1.351406   -0.628523   -0.499654
  C      0.115394   -0.672130   -1.343922
  H     -1.953730    0.012475    1.854431
  H     -1.775929    0.423032   -0.599384
  H     -0.195425    1.706225    1.122424
  H      2.439121    0.784536    0.762187
  H      2.170433   -1.323452   -0.721596
  H      0.305181   -0.254760   -2.346649
  H     -0.306330   -1.682668   -1.461986

 Multiplicity           Mult            ....    2
 Number of Electrons    NEL             ....   53
 Basis Dimension        Dim             ....  133

ORBITAL ENERGIES
----------------
                 SPIN UP ORBITALS
  NO   OCC          E(Eh)            E(eV)
   0   1.0000     -19.240613      -523.5637
   1   1.0000     -19.235643      -523.4285
   2   1.0000     -10.301804      -280.3264
   3   1.0000     -10.300988      -280.3041
   4   1.0000     -10.251937      -278.9694
   5   1.0000     -10.247700      -278.8541
   6   1.0000     -10.236596      -278.5519
   7   1.0000      -1.143747       -31.1229
   8   1.0000      -0.989397       -26.9229
   9   1.0000      -0.847274       -23.0555
  10   1.0000      -0.763926       -20.7875
  11   1.0000      -0.690461       -18.7884
  12   1.0000      -0.606443       -16.5022
  13   1.0000      -0.576343       -15.6831
  14   1.0000      -0.571147       -15.5417
  15   1.0000      -0.483225       -13.1492
  16   1.0000      -0.481637       -13.1060
  17   1.0000      -0.455240       -12.3877
  18   1.0000      -0.441629       -12.0173
  19   1.0000      -0.414860       -11.2889
  20   1.0000      -0.407623       -11.0920
  21   1.0000      -0.398535       -10.8447
  22   1.0000      -0.378976       -10.3125
  23   1.0000      -0.340746        -9.2722
  24   1.0000      -0.321171        -8.7395
  25   1.0000      -0.318394        -8.6639
  26   1.0000      -0.245733        -6.6867
  27   0.0000      -0.013105        -0.3566
  28   0.0000       0.071116         1.9352
  29   0.0000       0.098041         2.6678
  30   0.0000       0.105538         2.8718
  31   0.0000       0.115242         3.1359

                 SPIN DOWN ORBITALS
  NO   OCC          E(Eh)            E(eV)
   0   1.0000     -19.235734      -523.4309
   1   1.0000     -19.213844      -522.8353
   2   1.0000     -10.301792      -280.3260
   3   1.0000     -10.300978      -280.3039
   4   1.0000     -10.251933      -278.9693
   5   1.0000     -10.247698      -278.8540
   6   1.0000     -10.236596      -278.5519
   7   1.0000      -1.143801       -31.1244
   8   1.0000      -0.912285       -24.8245
   9   1.0000      -0.847076       -23.0501
  10   1.0000      -0.763912       -20.7871
  11   1.0000      -0.690474       -18.7888
  12   1.0000      -0.606390       -16.5007
  13   1.0000      -0.575937       -15.6721
  14   1.0000      -0.571115       -15.5408
  15   1.0000      -0.482596       -13.1321
  16   1.0000      -0.480891       -13.0857
  17   1.0000      -0.449403       -12.2289
  18   1.0000      -0.425062       -11.5665
  19   1.0000      -0.412228       -11.2173
  20   1.0000      -0.405530       -11.0350
  21   1.0000      -0.378482       -10.2990
  22   1.0000      -0.340476        -9.2648
  23   1.0000      -0.317891        -8.6502
  24   1.0000      -0.293669        -7.9911
  25   1.0000      -0.245452        -6.6791
  26   0.0000      -0.110877        -3.0171
  27   0.0000      -0.013103        -0.3565
  28   0.0000       0.072156         1.9635
  29   0.0000       0.098446         2.6789
  30   0.0000       0.106102         2.8872

MULLIKEN ATOMIC CHARGES AND SPIN POPULATIONS
--------------------------------------------
   0 O :   -0.224300    1.025881
   1 O :   -0.347654   -0.001423
   2 C :   -0.011587    0.000159
   3 C :    0.081835    0.000643
   4 C :    0.011407   -0.000131
   5 C :   -0.125470    0.000066
   6 C :    0.113227    0.000185
   7 H :    0.195004   -0.025868
   8 H :    0.054755    0.000077
   9 H :    0.051396    0.000428
  10 H :    0.041463    0.000014
  11 H :    0.031479   -0.000038
  12 H :    0.066509    0.000012
  13 H :    0.061935   -0.000006
Sum of atomic charges         :   -0.0000000

LOEWDIN ATOMIC CHARGES AND SPIN POPULATIONS
-------------------------------------------
   0 O :   -0.090518    0.997742
   1 O :   -0.153941   -0.001978
   2 C :    0.049406    0.000140
   3 C :    0.054884    0.000316
   4 C :   -0.066344   -0.000098
   5 C :    0.006223    0.000136
   6 C :   -0.044131    0.000136
   7 H :    0.039533    0.003166
   8 H :    0.025042    0.000152
   9 H :    0.028713    0.000316
  10 H :    0.035437   -0.000002
  11 H :    0.024842   -0.000026
  12 H :    0.044837   -0.000002
  13 H :    0.046017    0.000001

  Mayer bond orders larger than 0.100000
B(  0-O ,  7-H ) :   0.9360 B(  1-O ,  2-C ) :   0.9181 B(  1-O ,  3-C ) :   0.8913
B(  1-O ,  5-C ) :   0.1032 B(  2-C ,  3-C ) :   0.9995 B(  2-C ,  6-C ) :   0.9959
B(  2-C ,  8-H ) :   0.9735 B(  3-C ,  4-C ) :   0.9712 B(  3-C ,  9-H ) :   0.9850
B(  4-C ,  5-C ) :   1.8368 B(  4-C , 10-H ) :   0.9946 B(  5-C ,  6-C ) :   1.0225
B(  5-C , 11-H ) :   0.9658 B(  6-C , 12-H ) :   0.9239 B(  6-C , 13-H ) :   0.9252

Dispersion correction           -0.009638599
FINAL SINGLE POINT ENERGY      -344.354101374588

DIPOLE MOMENT
-------------
                                X             Y             Z
Electronic contribution:     -1.18952       0.57676       2.19274
Nuclear contribution   :      1.92325      -0.59656      -3.05519
                        -----------------------------------------
Total Dipole Moment    :      0.73373      -0.01980      -0.86245
                        -----------------------------------------
Magnitude (a.u.)       :      1.13250
Magnitude (Debye)      :      2.87860

Rotational constants in cm-1:     0.201158     0.058728     0.051058
Rotational constants in MHz :  6030.573707  1760.628182  1530.666513

                             ****ORCA TERMINATED NORMALLY****
TOTAL RUN TIME: 0 days 0 hours 0 minutes 50 seconds 912 msec
