                         Program Version 5.0.4 -  RELEASE  -
|  1> ! LooseOpt PBE0 RIJCOSX D3BJ def2-SVP def2/J
|  2> %geom Constraints
|  3> { B 1 5 2.636626491755024 C }
|  4> { B 0 1 1.7323770705479338 C }
|  5>     end
|  6> end
|  7> %geom MaxIter 50 end
|  8> %output
|  9> xyzfile=True
| 10> end
| 11> %scf
| 12> maxiter 250
| 13> end
| 14> %output
| 15> Print[P_Hirshfeld] = 1
| 16> end
| 17> % maxcore
| 18> 4000
| 19> %pal nprocs 8
| 20> end
| 21> *xyz 0 2
| 22> O   -2.39848629  -0.77513669   0.89315834
| 23> O   -1.01363940   0.14895804   1.11433532
| 24> C   -0.64662414   0.54474887  -0.17376262
| 25> C    0.55317469   1.37528222   0.19241022
| 26> C    1.66364853   0.53564666   0.17855591
| 27> C    1.32193972  -0.69475663  -0.36428281
| 28> C   -0.06777351  -0.66237117  -0.90740416
| 29> H   -2.37355418  -1.13001018   1.79416588
| 30> H   -1.47044718   1.07208604  -0.68277454
| 31> H    0.49405400   2.39067877   0.58322706
| 32> H    2.65627233   0.80201939   0.54709108
| 33> H    2.00650465  -1.53800551  -0.47616541
| 34> H   -0.05115826  -0.51477052  -2.00358160
| 35> H   -0.67391093  -1.55426929  -0.69497269
| 36> *
| 37>
| 38>                          ****END OF INPUT****
 Total Charge           Charge          ....    0
 Multiplicity           Mult            ....    2
 Number of Electrons    NEL             ....   53
Dispersion correction           -0.010269409
FINAL SINGLE POINT ENERGY      -344.352722205863
Dispersion correction            ... done
Dispersion correction           -0.010243371
FINAL SINGLE POINT ENERGY      -344.358622614018
Dispersion correction            ... done
Dispersion correction           -0.010255624
FINAL SINGLE POINT ENERGY      -344.359515314742
Dispersion correction            ... done
FINAL SINGLE POINT ENERGY      -344.359660389935
Dispersion correction            ... done
Dispersion correction           -0.010256673
FINAL SINGLE POINT ENERGY      -344.359743165108
Dispersion correction            ... done
Dispersion correction           -0.010256235
FINAL SINGLE POINT ENERGY      -344.359754638520
Dispersion correction            ... done
                    ***********************HURRAY********************

CARTESIAN COORDINATES (ANGSTROEM)
---------------------------------
  O     -2.276187   -0.877608    0.953432
  O     -0.869511    0.127484    1.063807
  C     -0.654410    0.572498   -0.236593
  C      0.541200    1.404172    0.136985
  C      1.615611    0.518935    0.213337
  C      1.228598   -0.711368   -0.294894
  C     -0.090927   -0.622491   -0.985142
  H     -2.213661   -1.136759    1.884693
  H     -1.525489    1.091015   -0.666536
  H      0.488074    2.427582    0.506624
  H      2.592722    0.741337    0.645613
  H      1.867945   -1.596972   -0.311695
  H      0.042122   -0.445454   -2.068560
  H     -0.746086   -1.492272   -0.841073

 Multiplicity           Mult            ....    2
 Number of Electrons    NEL             ....   53
 Basis Dimension        Dim             ....  133

ORBITAL ENERGIES
----------------
                 SPIN UP ORBITALS
  NO   OCC          E(Eh)            E(eV)
   0   1.0000     -19.256823      -524.0048
   1   1.0000     -19.235125      -523.4144
   2   1.0000     -10.287476      -279.9364
   3   1.0000     -10.259853      -279.1848
   4   1.0000     -10.254058      -279.0271
   5   1.0000     -10.245831      -278.8032
   6   1.0000     -10.233234      -278.4605
   7   1.0000      -1.059902       -28.8414
   8   1.0000      -0.956847       -26.0371
   9   1.0000      -0.861719       -23.4486
  10   1.0000      -0.740288       -20.1443
  11   1.0000      -0.706439       -19.2232
  12   1.0000      -0.580707       -15.8018
  13   1.0000      -0.560841       -15.2613
  14   1.0000      -0.547093       -14.8871
  15   1.0000      -0.489282       -13.3140
  16   1.0000      -0.473640       -12.8884
  17   1.0000      -0.439545       -11.9606
  18   1.0000      -0.411234       -11.1903
  19   1.0000      -0.402516       -10.9530
  20   1.0000      -0.400226       -10.8907
  21   1.0000      -0.381291       -10.3754
  22   1.0000      -0.353153        -9.6098
  23   1.0000      -0.330072        -8.9817
  24   1.0000      -0.318846        -8.6762
  25   1.0000      -0.267328        -7.2744
  26   1.0000      -0.209186        -5.6923
  27   0.0000      -0.065194        -1.7740
  28   0.0000       0.033019         0.8985
  29   0.0000       0.080296         2.1850
  30   0.0000       0.098536         2.6813
  31   0.0000       0.116598         3.1728

                 SPIN DOWN ORBITALS
  NO   OCC          E(Eh)            E(eV)
   0   1.0000     -19.258789      -524.0583
   1   1.0000     -19.228362      -523.2303
   2   1.0000     -10.287850      -279.9466
   3   1.0000     -10.251428      -278.9556
   4   1.0000     -10.249695      -278.9084
   5   1.0000     -10.244194      -278.7587
   6   1.0000     -10.233809      -278.4761
   7   1.0000      -1.058668       -28.8078
   8   1.0000      -0.943372       -25.6705
   9   1.0000      -0.853673       -23.2296
  10   1.0000      -0.734629       -19.9903
  11   1.0000      -0.693941       -18.8831
  12   1.0000      -0.574775       -15.6404
  13   1.0000      -0.557288       -15.1646
  14   1.0000      -0.540380       -14.7045
  15   1.0000      -0.482700       -13.1349
  16   1.0000      -0.470149       -12.7934
  17   1.0000      -0.433961       -11.8087
  18   1.0000      -0.407256       -11.0820
  19   1.0000      -0.398489       -10.8434
  20   1.0000      -0.395736       -10.7685
  21   1.0000      -0.377525       -10.2730
  22   1.0000      -0.341377        -9.2893
  23   1.0000      -0.323067        -8.7911
  24   1.0000      -0.297885        -8.1059
  25   1.0000      -0.263602        -7.1730
  26   0.0000      -0.087996        -2.3945
  27   0.0000      -0.038479        -1.0471
  28   0.0000       0.057513         1.5650
  29   0.0000       0.082508         2.2452
  30   0.0000       0.101549         2.7633

MULLIKEN ATOMIC CHARGES AND SPIN POPULATIONS
--------------------------------------------
   0 O :   -0.238356    0.238289
   1 O :   -0.260744   -0.101383
   2 C :    0.043402   -0.036674
   3 C :   -0.024157    0.606096
   4 C :    0.003112   -0.302263
   5 C :   -0.076872    0.668863
   6 C :    0.080845   -0.054784
   7 H :    0.185439   -0.005162
   8 H :    0.042540    0.002988
   9 H :    0.050375   -0.028925
  10 H :    0.033683    0.010936
  11 H :    0.035257   -0.032699
  12 H :    0.058571    0.029554
  13 H :    0.066904    0.005164
Sum of atomic charges         :   -0.0000000

LOEWDIN ATOMIC CHARGES AND SPIN POPULATIONS
-------------------------------------------
   0 O :   -0.132387    0.217730
   1 O :   -0.089291   -0.078635
   2 C :    0.037621    0.002249
   3 C :   -0.005210    0.469032
   4 C :   -0.034332   -0.165465
   5 C :    0.017879    0.531484
   6 C :   -0.054545   -0.007755
   7 H :    0.065511    0.002129
   8 H :    0.019917    0.002323
   9 H :    0.031971   -0.000825
  10 H :    0.035458    0.000826
  11 H :    0.025787   -0.001326
  12 H :    0.040714    0.023346
  13 H :    0.040908    0.004887

  Mayer bond orders larger than 0.100000
B(  0-O ,  1-O ) :   0.7945 B(  0-O ,  7-H ) :   0.9751 B(  1-O ,  2-C ) :   0.9481
B(  1-O ,  3-C ) :   0.1020 B(  2-C ,  3-C ) :   0.9805 B(  2-C ,  6-C ) :   1.0174
B(  2-C ,  8-H ) :   0.9487 B(  3-C ,  4-C ) :   1.3361 B(  3-C ,  9-H ) :   0.9928
B(  4-C ,  5-C ) :   1.4348 B(  4-C , 10-H ) :   0.9932 B(  5-C ,  6-C ) :   0.9973
B(  5-C , 11-H ) :   0.9802 B(  6-C , 12-H ) :   0.9244 B(  6-C , 13-H ) :   0.9268

Dispersion correction           -0.010255880
FINAL SINGLE POINT ENERGY      -344.359757590118

DIPOLE MOMENT
-------------
                                X             Y             Z
Electronic contribution:     -1.07102       0.55479       1.83967
Nuclear contribution   :      1.63316      -0.49952      -1.92716
                        -----------------------------------------
Total Dipole Moment    :      0.56215       0.05527      -0.08749
                        -----------------------------------------
Magnitude (a.u.)       :      0.57159
Magnitude (Debye)      :      1.45287

Rotational constants in cm-1:     0.173829     0.074960     0.065292
Rotational constants in MHz :  5211.250055  2247.246034  1957.412230

                             ****ORCA TERMINATED NORMALLY****
TOTAL RUN TIME: 0 days 0 hours 1 minutes 14 seconds 808 msec
