   * xtb version 6.6.1 (8d0f1dd) compiled by 'conda@1efc2f54142f' on 2023-08-01
          program call               : /gpfs/fs1/home/copan/code/autode-practice/.pixi/envs/default/bin/xtb path_opt5_xtb.xyz --chrg 0 --uhf 1 --opt --input xcontrol_path_opt5_xtb

   ID    Z sym.   atoms
    1    8 O      1, 2
    2    6 C      3-7
    3    1 H      8-14
constraining bond 2 6 to    2.3102000 Å, actual value:    2.3716226 Å
constraining bond 1 2 to    2.3868000 Å, actual value:    2.0880270 Å

          :  Hamiltonian                  GFN2-xTB          :
 * total energy  :   -21.5504901 Eh     change       -0.8627055E-10 Eh
 * total energy  :   -21.9046982 Eh     change       -0.3542080E+00 Eh
 * total energy  :   -22.1999428 Eh     change       -0.2952446E+00 Eh
 * total energy  :   -22.2021163 Eh     change       -0.2173542E-02 Eh
 * total energy  :   -22.2029805 Eh     change       -0.8642013E-03 Eh
 * total energy  :   -22.2020479 Eh     change        0.9326251E-03 Eh
 * total energy  :   -22.2037446 Eh     change       -0.1696712E-02 Eh
 * total energy  :   -22.2038837 Eh     change       -0.1390316E-03 Eh
 * total energy  :   -22.2039821 Eh     change       -0.9842158E-04 Eh
 * total energy  :   -22.2040572 Eh     change       -0.7510952E-04 Eh
 * total energy  :   -22.2043521 Eh     change       -0.3312907E-04 Eh
 * total energy  :   -22.2043787 Eh     change       -0.2655463E-04 Eh
 * total energy  :   -22.2044530 Eh     change       -0.7433380E-04 Eh
 * total energy  :   -22.2044997 Eh     change       -0.4675188E-04 Eh
 * total energy  :   -22.2045281 Eh     change       -0.2837331E-04 Eh
 * total energy  :   -22.2045474 Eh     change       -0.1928603E-04 Eh
 * total energy  :   -22.2045614 Eh     change       -0.1400482E-04 Eh
 * total energy  :   -22.2045698 Eh     change       -0.8422102E-05 Eh
 * total energy  :   -22.2045716 Eh     change       -0.1732284E-05 Eh
   *** GEOMETRY OPTIMIZATION CONVERGED AFTER 28 ITERATIONS ***

 final structure:
================
14
 xtb: 6.6.1 (8d0f1dd)
O           -2.50579008274196        0.51766033537013        1.71198171735534
O           -0.44967236765367       -0.29547148795142        0.81703269545901
C           -0.68512188679361        0.16919572804557       -0.46890393111327
C            0.17246279112165        0.91401420140370        0.47791586126445
C            1.55050248393846        0.43582328057988        0.26941505259970
C            1.41858370336281       -0.63239970128507       -0.51168267996120
C            0.17868601152228       -0.69184928303047       -1.34169693187316
H           -2.61808868798262       -0.13404014243991        2.40256895865739
H           -1.69008249057940        0.48300962161695       -0.70314308248879
H           -0.13778574213043        1.80327796603555        1.00036580715778
H            2.39490675450624        0.72154025367392        0.86500049487398
H            2.23962267890654       -1.29493047730036       -0.75009396880923
H            0.35818743634269       -0.29632064141473       -2.34318850265210
H           -0.22642060181886       -1.69939965330370       -1.42554149047004

          :  Hamiltonian                  GFN2-xTB          :
         :: total energy             -22.204571556403 Eh    ::
         :: gradient norm              0.000485388271 Eh/a0 ::
         :: HOMO-LUMO gap              3.794103893250 eV    ::
         :: SCC energy               -22.467443804180 Eh    ::
         :: -> dispersion             -0.008234200544 Eh    ::
         :: repulsion energy           0.262494059951 Eh    ::

    * Orbital Energies and Occupations

         #    Occupation            Energy/Eh            Energy/eV
      -------------------------------------------------------------
         1        2.0000           -0.7392419             -20.1158
       ...           ...                  ...                  ...
         8        2.0000           -0.5756382             -15.6639
         9        2.0000           -0.5453309             -14.8392
        10        2.0000           -0.5385774             -14.6554
        11        2.0000           -0.5248846             -14.2828
        12        2.0000           -0.4964135             -13.5081
        13        2.0000           -0.4911065             -13.3637
        14        2.0000           -0.4884981             -13.2927
        15        2.0000           -0.4801433             -13.0654
        16        2.0000           -0.4601684             -12.5218
        17        2.0000           -0.4399223             -11.9709
        18        2.0000           -0.4135040             -11.2520
        19        1.9999           -0.4017737             -10.9328
        20        1.0001           -0.3844806             -10.4623 (HOMO)
        21                         -0.2450499              -6.6681 (LUMO)
        22                         -0.0934962              -2.5442
        23                          0.0608979               1.6571
        24                          0.0737126               2.0058
        25                          0.0917040               2.4954
        26                          0.0957625               2.6058
        27                          0.1384860               3.7684
        28                          0.1762342               4.7956
        29                          0.2003088               5.4507
        30                          0.2110552               5.7431
        31                          0.2202828               5.9942
       ...                                ...                  ...
        35                          0.6288013              17.1106
      -------------------------------------------------------------
                  HL-Gap            0.1394308 Eh            3.7941 eV

     #   Z          covCN         q      C6AA      α(0)
     1   8 O        0.806    -0.531    24.500     6.635
     2   8 O        1.726    -0.225    17.734     5.686
     3   6 C        3.846     0.103    18.856     6.177
     4   6 C        3.865     0.098    18.921     6.186
     5   6 C        2.943    -0.038    28.955     8.825
     6   6 C        3.096    -0.010    28.156     8.696
     7   6 C        3.836    -0.068    21.782     6.640
     8   1 H        0.806     0.269     0.822     1.424
     9   1 H        0.926     0.081     1.973     2.197
    10   1 H        0.926     0.074     2.042     2.234
    11   1 H        0.926     0.062     2.174     2.306
    12   1 H        0.925     0.047     2.364     2.404
    13   1 H        0.924     0.063     2.166     2.301
    14   1 H        0.925     0.077     2.015     2.220

Wiberg/Mayer (AO) data.
largest (>0.10) Wiberg bond orders for each atom

     #   Z sym  total        # sym  WBO       # sym  WBO       # sym  WBO
 ---------------------------------------------------------------------------
     1   8 O    1.318 --     8 H    0.927     2 O    0.248
     2   8 O    2.197 --     3 C    0.938     4 C    0.903     1 O    0.248
     3   6 C    3.893 --     7 C    0.999     9 H    0.957     4 C    0.946
                             2 O    0.938
     4   6 C    3.886 --     5 C    1.023    10 H    0.961     3 C    0.946
                             2 O    0.903
     5   6 C    3.980 --     6 C    1.845     4 C    1.023    11 H    0.967
     6   6 C    3.986 --     5 C    1.845     7 C    1.027    12 H    0.970
     7   6 C    3.995 --     6 C    1.027     3 C    0.999    14 H    0.956
                            13 H    0.951
     8   1 H    0.928 --     1 O    0.927
     9   1 H    0.993 --     3 C    0.957
    10   1 H    0.994 --     4 C    0.961
    11   1 H    0.996 --     5 C    0.967
    12   1 H    0.998 --     6 C    0.970
    13   1 H    0.996 --     7 C    0.951
    14   1 H    0.994 --     7 C    0.956
 ---------------------------------------------------------------------------

molecular dipole:
                 x           y           z       tot (Debye)
 q only:        1.320      -0.173      -1.098
   full:        1.181      -0.285      -0.857       3.778

           -------------------------------------------------
          | TOTAL ENERGY              -22.204571556403 Eh   |
          | GRADIENT NORM               0.000485388271 Eh/α |
          | HOMO-LUMO GAP               3.794103893250 eV   |
           -------------------------------------------------

 * finished run on 2025/05/23 at 12:05:46.348
