                         Program Version 5.0.4 -  RELEASE  -
|  1> ! LooseOpt PBE0 RIJCOSX D3BJ def2-SVP def2/J
|  2> %geom Constraints
|  3> { B 1 5 2.484367860973841 C }
|  4> { B 0 1 1.7910147621859476 C }
|  5>     end
|  6> end
|  7> %geom MaxIter 50 end
|  8> %output
|  9> xyzfile=True
| 10> end
| 11> %scf
| 12> maxiter 250
| 13> end
| 14> %output
| 15> Print[P_Hirshfeld] = 1
| 16> end
| 17> % maxcore
| 18> 4000
| 19> %pal nprocs 8
| 20> end
| 21> *xyz 0 2
| 22> O   -2.27618691  -0.87760768   0.95343229
| 23> O   -0.86951059   0.12748405   1.06380736
| 24> C   -0.65441022   0.57249763  -0.23659251
| 25> C    0.54120041   1.40417219   0.13698452
| 26> C    1.61561069   0.51893478   0.21333716
| 27> C    1.22859760  -0.71136806  -0.29489355
| 28> C   -0.09092662  -0.62249127  -0.98514238
| 29> H   -2.21366149  -1.13675879   1.88469269
| 30> H   -1.52548913   1.09101531  -0.66653633
| 31> H    0.48807406   2.42758248   0.50662438
| 32> H    2.59272180   0.74133682   0.64561343
| 33> H    1.86794488  -1.59697190  -0.31169462
| 34> H    0.04212177  -0.44545400  -2.06855955
| 35> H   -0.74608621  -1.49227156  -0.84107289
| 36> *
| 37>
| 38>                          ****END OF INPUT****
 Total Charge           Charge          ....    0
 Multiplicity           Mult            ....    2
 Number of Electrons    NEL             ....   53
Dispersion correction           -0.010322236
FINAL SINGLE POINT ENERGY      -344.344113465746
Dispersion correction            ... done
Dispersion correction           -0.010299159
FINAL SINGLE POINT ENERGY      -344.346205467087
Dispersion correction            ... done
Dispersion correction           -0.010294317
FINAL SINGLE POINT ENERGY      -344.346455582478
Dispersion correction            ... done
Dispersion correction           -0.010284941
FINAL SINGLE POINT ENERGY      -344.346510608871
Dispersion correction            ... done
Dispersion correction           -0.010275567
FINAL SINGLE POINT ENERGY      -344.346528953006
Dispersion correction            ... done
                    ***********************HURRAY********************

CARTESIAN COORDINATES (ANGSTROEM)
---------------------------------
  O     -2.198668   -0.951536    0.993810
  O     -0.768500    0.126328    1.017538
  C     -0.657932    0.581206   -0.285530
  C      0.522414    1.406260    0.133364
  C      1.593401    0.510197    0.224820
  C      1.181348   -0.710325   -0.274819
  C     -0.096866   -0.604800   -1.038427
  H     -2.155571   -1.070639    1.954023
  H     -1.552238    1.092918   -0.671038
  H      0.460023    2.422693    0.520404
  H      2.554570    0.707497    0.701322
  H      1.794984   -1.614282   -0.245789
  H      0.091710   -0.430377   -2.113483
  H     -0.768675   -1.465041   -0.916196

 Multiplicity           Mult            ....    2
 Number of Electrons    NEL             ....   53
 Basis Dimension        Dim             ....  133

ORBITAL ENERGIES
----------------
                 SPIN UP ORBITALS
  NO   OCC          E(Eh)            E(eV)
   0   1.0000     -19.245514      -523.6971
   1   1.0000     -19.219357      -522.9853
   2   1.0000     -10.288231      -279.9570
   3   1.0000     -10.269753      -279.4542
   4   1.0000     -10.258092      -279.1369
   5   1.0000     -10.247690      -278.8538
   6   1.0000     -10.234304      -278.4896
   7   1.0000      -1.054126       -28.6842
   8   1.0000      -0.955273       -25.9943
   9   1.0000      -0.858360       -23.3572
  10   1.0000      -0.744640       -20.2627
  11   1.0000      -0.706469       -19.2240
  12   1.0000      -0.581503       -15.8235
  13   1.0000      -0.562749       -15.3132
  14   1.0000      -0.551681       -15.0120
  15   1.0000      -0.485522       -13.2117
  16   1.0000      -0.465637       -12.6706
  17   1.0000      -0.435261       -11.8441
  18   1.0000      -0.413706       -11.2575
  19   1.0000      -0.407076       -11.0771
  20   1.0000      -0.399325       -10.8662
  21   1.0000      -0.378178       -10.2907
  22   1.0000      -0.357099        -9.7172
  23   1.0000      -0.319530        -8.6949
  24   1.0000      -0.313713        -8.5366
  25   1.0000      -0.264090        -7.1863
  26   1.0000      -0.211625        -5.7586
  27   0.0000      -0.065704        -1.7879
  28   0.0000       0.032351         0.8803
  29   0.0000       0.079130         2.1532
  30   0.0000       0.102731         2.7955
  31   0.0000       0.118368         3.2210

                 SPIN DOWN ORBITALS
  NO   OCC          E(Eh)            E(eV)
   0   1.0000     -19.249382      -523.8023
   1   1.0000     -19.207293      -522.6570
   2   1.0000     -10.288583      -279.9666
   3   1.0000     -10.262566      -279.2586
   4   1.0000     -10.251480      -278.9570
   5   1.0000     -10.248760      -278.8829
   6   1.0000     -10.234874      -278.5051
   7   1.0000      -1.056073       -28.7372
   8   1.0000      -0.929345       -25.2888
   9   1.0000      -0.851478       -23.1699
  10   1.0000      -0.740045       -20.1376
  11   1.0000      -0.696010       -18.9394
  12   1.0000      -0.576822       -15.6961
  13   1.0000      -0.560032       -15.2392
  14   1.0000      -0.545698       -14.8492
  15   1.0000      -0.479448       -13.0464
  16   1.0000      -0.462328       -12.5806
  17   1.0000      -0.428082       -11.6487
  18   1.0000      -0.409860       -11.1528
  19   1.0000      -0.402928       -10.9642
  20   1.0000      -0.394613       -10.7380
  21   1.0000      -0.375554       -10.2193
  22   1.0000      -0.341075        -9.2811
  23   1.0000      -0.311437        -8.4746
  24   1.0000      -0.287648        -7.8273
  25   1.0000      -0.257321        -7.0021
  26   0.0000      -0.088616        -2.4114
  27   0.0000      -0.034661        -0.9432
  28   0.0000       0.054297         1.4775
  29   0.0000       0.081035         2.2051
  30   0.0000       0.106495         2.8979

MULLIKEN ATOMIC CHARGES AND SPIN POPULATIONS
--------------------------------------------
   0 O :   -0.261369    0.427648
   1 O :   -0.276823   -0.176918
   2 C :    0.038523   -0.033847
   3 C :   -0.007597    0.523386
   4 C :    0.001618   -0.290186
   5 C :   -0.069899    0.624195
   6 C :    0.095393   -0.051604
   7 H :    0.178545   -0.009518
   8 H :    0.042158    0.002091
   9 H :    0.055518   -0.025072
  10 H :    0.036449    0.010639
  11 H :    0.036879   -0.030341
  12 H :    0.057879    0.025386
  13 H :    0.072725    0.004141
Sum of atomic charges         :    0.0000000

LOEWDIN ATOMIC CHARGES AND SPIN POPULATIONS
-------------------------------------------
   0 O :   -0.158413    0.394429
   1 O :   -0.101731   -0.144696
   2 C :    0.038384   -0.001089
   3 C :    0.017417    0.400687
   4 C :   -0.036257   -0.163642
   5 C :    0.032724    0.495218
   6 C :   -0.053328   -0.008847
   7 H :    0.059313    0.003250
   8 H :    0.020685    0.001428
   9 H :    0.034628   -0.000700
  10 H :    0.036119    0.000733
  11 H :    0.026813   -0.001141
  12 H :    0.039254    0.020385
  13 H :    0.044392    0.003986

  Mayer bond orders larger than 0.100000
B(  0-O ,  1-O ) :   0.6483 B(  0-O ,  7-H ) :   0.9790 B(  1-O ,  2-C ) :   0.9481
B(  1-O ,  3-C ) :   0.2121 B(  2-C ,  3-C ) :   0.9683 B(  2-C ,  6-C ) :   1.0098
B(  2-C ,  8-H ) :   0.9536 B(  3-C ,  4-C ) :   1.3020 B(  3-C ,  9-H ) :   0.9947
B(  4-C ,  5-C ) :   1.4655 B(  4-C , 10-H ) :   0.9932 B(  5-C ,  6-C ) :   0.9955
B(  5-C , 11-H ) :   0.9784 B(  6-C , 12-H ) :   0.9265 B(  6-C , 13-H ) :   0.9249

Dispersion correction           -0.010273604
FINAL SINGLE POINT ENERGY      -344.346531262801

DIPOLE MOMENT
-------------
                                X             Y             Z
Electronic contribution:     -0.78714       0.63168       1.65505
Nuclear contribution   :      1.45340      -0.39001      -1.79174
                        -----------------------------------------
Total Dipole Moment    :      0.66626       0.24167      -0.13669
                        -----------------------------------------
Magnitude (a.u.)       :      0.72180
Magnitude (Debye)      :      1.83466

Rotational constants in cm-1:     0.169415     0.077091     0.067866
Rotational constants in MHz :  5078.943654  2311.129358  2034.559090

                             ****ORCA TERMINATED NORMALLY****
TOTAL RUN TIME: 0 days 0 hours 1 minutes 9 seconds 255 msec
