   * xtb version 6.6.1 (8d0f1dd) compiled by 'conda@1efc2f54142f' on 2023-08-01
          program call               : /gpfs/fs1/home/copan/code/autode-practice/.pixi/envs/default/bin/xtb path_opt6_xtb.xyz --chrg 0 --uhf 1 --opt --input xcontrol_path_opt6_xtb

   ID    Z sym.   atoms
    1    8 O      1, 2
    2    6 C      3-7
    3    1 H      8-14
constraining bond 2 6 to    2.2625000 Å, actual value:    2.3171860 Å
constraining bond 1 2 to    2.6438000 Å, actual value:    2.3853189 Å

          :  Hamiltonian                  GFN2-xTB          :
 * total energy  :   -21.7063936 Eh     change       -0.2947100E-08 Eh
 * total energy  :   -21.9312004 Eh     change       -0.2248068E+00 Eh
 * total energy  :   -22.1920423 Eh     change       -0.2608419E+00 Eh
 * total energy  :   -22.1932712 Eh     change       -0.1228894E-02 Eh
 * total energy  :   -22.1933293 Eh     change       -0.5807814E-04 Eh
 * total energy  :   -22.1941572 Eh     change       -0.8278946E-03 Eh
 * total energy  :   -22.1943440 Eh     change       -0.1867877E-03 Eh
 * total energy  :   -22.1944355 Eh     change       -0.9156449E-04 Eh
 * total energy  :   -22.1944748 Eh     change       -0.3927664E-04 Eh
 * total energy  :   -22.1944954 Eh     change       -0.2061293E-04 Eh
 * total energy  :   -22.1948796 Eh     change       -0.3624523E-04 Eh
 * total energy  :   -22.1949009 Eh     change       -0.2124129E-04 Eh
 * total energy  :   -22.1948827 Eh     change        0.1815045E-04 Eh
 * total energy  :   -22.1949114 Eh     change       -0.2866492E-04 Eh
 * total energy  :   -22.1949161 Eh     change       -0.4743573E-05 Eh
 * total energy  :   -22.1949207 Eh     change       -0.4615775E-05 Eh
 * total energy  :   -22.1949234 Eh     change       -0.2684162E-05 Eh
 * total energy  :   -22.1949271 Eh     change       -0.3671812E-05 Eh
 * total energy  :   -22.1949290 Eh     change       -0.1932434E-05 Eh
   *** GEOMETRY OPTIMIZATION CONVERGED AFTER 35 ITERATIONS ***

 final structure:
================
14
 xtb: 6.6.1 (8d0f1dd)
O           -2.56964726871674        0.64852322485178        1.71793872906574
O           -0.33359163815549       -0.43739801507606        0.82061500689244
C           -0.67044286048799        0.07574729257519       -0.42267668188032
C            0.18179396298215        0.83325501417575        0.52053049718981
C            1.57448202695415        0.45236165548157        0.23734538200852
C            1.45750819979980       -0.60729034613381       -0.56391368579118
C            0.20401676626258       -0.68818427504196       -1.37079369657221
H           -2.88963145077089        0.11695974524265        2.44623446015972
H           -1.70287860519053        0.33791017915428       -0.59150801711029
H           -0.16864151194671        1.67106076813538        1.09878182698261
H            2.42776005611472        0.76142708303588        0.80821294211935
H            2.30097818922065       -1.22318033166885       -0.84843775962278
H            0.34001886035470       -0.23168151304947       -2.35288582576938
H           -0.15173472642021       -1.70940048168255       -1.49939317767212

          :  Hamiltonian                  GFN2-xTB          :
         :: total energy             -22.194929016914 Eh    ::
         :: gradient norm              0.000914257337 Eh/a0 ::
         :: HOMO-LUMO gap              3.980385668318 eV    ::
         :: SCC energy               -22.456805428969 Eh    ::
         :: -> dispersion             -0.008155209006 Eh    ::
         :: repulsion energy           0.261435440865 Eh    ::

    * Orbital Energies and Occupations

         #    Occupation            Energy/Eh            Energy/eV
      -------------------------------------------------------------
         1        2.0000           -0.7366752             -20.0460
       ...           ...                  ...                  ...
         8        2.0000           -0.5747379             -15.6394
         9        2.0000           -0.5439704             -14.8022
        10        2.0000           -0.5368208             -14.6076
        11        2.0000           -0.5252917             -14.2939
        12        2.0000           -0.4980853             -13.5536
        13        2.0000           -0.4918419             -13.3837
        14        2.0000           -0.4876737             -13.2703
        15        2.0000           -0.4792622             -13.0414
        16        2.0000           -0.4587442             -12.4831
        17        2.0000           -0.4386912             -11.9374
        18        1.9992           -0.4066089             -11.0644
        19        1.9928           -0.4044942             -11.0068
        20        1.0080           -0.3952281             -10.7547 (HOMO)
        21                         -0.2489516              -6.7743 (LUMO)
        22                         -0.0924721              -2.5163
        23                          0.0597287               1.6253
        24                          0.0732065               1.9920
        25                          0.0934859               2.5439
        26                          0.0974927               2.6529
        27                          0.1388964               3.7796
        28                          0.1760205               4.7898
        29                          0.1964050               5.3445
        30                          0.2119108               5.7664
        31                          0.2233131               6.0767
       ...                                ...                  ...
        35                          0.6206955              16.8900
      -------------------------------------------------------------
                  HL-Gap            0.1462765 Eh            3.9804 eV

     #   Z          covCN         q      C6AA      α(0)
     1   8 O        0.806    -0.534    24.568     6.644
     2   8 O        1.734    -0.245    18.047     5.736
     3   6 C        3.857     0.103    18.849     6.175
     4   6 C        3.876     0.098    18.925     6.186
     5   6 C        2.946    -0.033    28.828     8.806
     6   6 C        3.121    -0.003    27.924     8.654
     7   6 C        3.837    -0.069    21.784     6.640
     8   1 H        0.806     0.269     0.822     1.424
     9   1 H        0.926     0.083     1.943     2.180
    10   1 H        0.926     0.078     2.003     2.213
    11   1 H        0.926     0.064     2.151     2.293
    12   1 H        0.925     0.048     2.351     2.398
    13   1 H        0.924     0.063     2.161     2.299
    14   1 H        0.925     0.077     2.013     2.219

Wiberg/Mayer (AO) data.
largest (>0.10) Wiberg bond orders for each atom

     #   Z sym  total        # sym  WBO       # sym  WBO       # sym  WBO
 ---------------------------------------------------------------------------
     1   8 O    1.318 --     8 H    0.927     2 O    0.199
     2   8 O    2.157 --     3 C    0.941     4 C    0.900     1 O    0.199
     3   6 C    3.895 --     7 C    1.000     9 H    0.956     4 C    0.942
                             2 O    0.941
     4   6 C    3.887 --     5 C    1.030    10 H    0.961     3 C    0.942
                             2 O    0.900
     5   6 C    3.976 --     6 C    1.810     4 C    1.030    11 H    0.967
     6   6 C    3.982 --     5 C    1.810     7 C    1.028    12 H    0.969
     7   6 C    3.995 --     6 C    1.028     3 C    1.000    14 H    0.956
                            13 H    0.949
     8   1 H    0.928 --     1 O    0.927
     9   1 H    0.993 --     3 C    0.956
    10   1 H    0.994 --     4 C    0.961
    11   1 H    0.996 --     5 C    0.967
    12   1 H    0.998 --     6 C    0.969
    13   1 H    0.996 --     7 C    0.949
    14   1 H    0.994 --     7 C    0.956
 ---------------------------------------------------------------------------

molecular dipole:
                 x           y           z       tot (Debye)
 q only:        1.271      -0.154      -1.097
   full:        1.095      -0.245      -0.842       3.566

           -------------------------------------------------
          | TOTAL ENERGY              -22.194929016914 Eh   |
          | GRADIENT NORM               0.000914257337 Eh/α |
          | HOMO-LUMO GAP               3.980385668318 eV   |
           -------------------------------------------------

 * finished run on 2025/05/23 at 12:05:46.854
