   * xtb version 6.6.1 (8d0f1dd) compiled by 'conda@1efc2f54142f' on 2023-08-01
          program call               : /gpfs/fs1/home/copan/code/autode-practice/.pixi/envs/default/bin/xtb path_opt4_xtb.xyz --chrg 0 --uhf 1 --opt --input xcontrol_path_opt4_xtb

   ID    Z sym.   atoms
    1    8 O      1, 2
    2    6 C      3-7
    3    1 H      8-14
constraining bond 2 6 to    2.3655000 Å, actual value:    2.4522067 Å
constraining bond 1 2 to    2.0882000 Å, actual value:    1.7882029 Å

          :  Hamiltonian                  GFN2-xTB          :
 * total energy  :   -21.5134879 Eh     change       -0.3746692E-10 Eh
 * total energy  :   -21.9397976 Eh     change       -0.4263097E+00 Eh
 * total energy  :   -22.2058499 Eh     change       -0.2660523E+00 Eh
 * total energy  :   -22.1974962 Eh     change        0.8353753E-02 Eh
 * total energy  :   -22.2069278 Eh     change       -0.9431628E-02 Eh
 * total energy  :   -22.2100732 Eh     change       -0.3145407E-02 Eh
 * total energy  :   -22.2105072 Eh     change       -0.4340099E-03 Eh
 * total energy  :   -22.2111170 Eh     change       -0.6098004E-03 Eh
 * total energy  :   -22.2112432 Eh     change       -0.1262248E-03 Eh
 * total energy  :   -22.2114345 Eh     change       -0.1912605E-03 Eh
 * total energy  :   -22.2145336 Eh     change       -0.5405060E-04 Eh
 * total energy  :   -22.2145913 Eh     change       -0.5775674E-04 Eh
 * total energy  :   -22.2146442 Eh     change       -0.5284801E-04 Eh
 * total energy  :   -22.2146792 Eh     change       -0.3503916E-04 Eh
 * total energy  :   -22.2146914 Eh     change       -0.1219650E-04 Eh
 * total energy  :   -22.2147050 Eh     change       -0.1355162E-04 Eh
 * total energy  :   -22.2147085 Eh     change       -0.3511872E-05 Eh
 * total energy  :   -22.2147107 Eh     change       -0.2241681E-05 Eh
 * total energy  :   -22.2147117 Eh     change       -0.1001826E-05 Eh
   *** GEOMETRY OPTIMIZATION CONVERGED AFTER 36 ITERATIONS ***

 final structure:
================
14
 xtb: 6.6.1 (8d0f1dd)
O           -2.34860170539201        0.41980757737521        1.66441648385130
O           -0.55261130721749       -0.21688651917690        0.81067333002799
C           -0.70422392415246        0.21841800378897       -0.49826645351084
C            0.14574195384261        0.94845990131210        0.46480868286581
C            1.51356940450432        0.41978797854387        0.30872100731462
C            1.39167296274134       -0.64009661347277       -0.47978422746259
C            0.15849106507161       -0.69330643468963       -1.32094189558972
H           -2.40963607149557       -0.23398897922173        2.36002648222043
H           -1.68517994296096        0.56534666610090       -0.78344163337452
H           -0.14549884544356        1.86348140011043        0.95353119119227
H            2.34586937667123        0.69599525041915        0.92535117437131
H            2.20336362255401       -1.32105437418669       -0.69314906611597
H            0.35546017569858       -0.33198473552647       -2.33187875032281
H           -0.26841676442128       -1.69387912137643       -1.38003632546786

          :  Hamiltonian                  GFN2-xTB          :
         :: total energy             -22.214711715840 Eh    ::
         :: gradient norm              0.000928308058 Eh/a0 ::
         :: HOMO-LUMO gap              3.145139056943 eV    ::
         :: SCC energy               -22.478254059718 Eh    ::
         :: -> dispersion             -0.008348088774 Eh    ::
         :: repulsion energy           0.263259004701 Eh    ::

    * Orbital Energies and Occupations

         #    Occupation            Energy/Eh            Energy/eV
      -------------------------------------------------------------
         1        2.0000           -0.7416532             -20.1814
       ...           ...                  ...                  ...
         8        2.0000           -0.5760719             -15.6757
         9        2.0000           -0.5464792             -14.8705
        10        2.0000           -0.5399109             -14.6917
        11        2.0000           -0.5239410             -14.2572
        12        2.0000           -0.4964969             -13.5104
        13        2.0000           -0.4891104             -13.3094
        14        2.0000           -0.4862584             -13.2318
        15        2.0000           -0.4800951             -13.0641
        16        2.0000           -0.4608163             -12.5394
        17        2.0000           -0.4446291             -12.0990
        18        2.0000           -0.4190480             -11.4029
        19        2.0000           -0.3945847             -10.7372
        20        1.0000           -0.3566421              -9.7047 (HOMO)
        21                         -0.2410604              -6.5596 (LUMO)
        22                         -0.0935080              -2.5445
        23                          0.0627213               1.7067
        24                          0.0754338               2.0527
        25                          0.0899702               2.4482
        26                          0.0940621               2.5596
        27                          0.1389267               3.7804
        28                          0.1762475               4.7959
        29                          0.2026611               5.5147
        30                          0.2118767               5.7655
        31                          0.2204170               5.9979
       ...                                ...                  ...
        35                          0.6375669              17.3491
      -------------------------------------------------------------
                  HL-Gap            0.1155817 Eh            3.1451 eV

     #   Z          covCN         q      C6AA      α(0)
     1   8 O        0.811    -0.544    24.818     6.678
     2   8 O        1.724    -0.192    17.202     5.600
     3   6 C        3.836     0.103    18.861     6.179
     4   6 C        3.855     0.098    18.927     6.188
     5   6 C        2.940    -0.044    29.092     8.846
     6   6 C        3.073    -0.018    28.369     8.733
     7   6 C        3.836    -0.069    21.791     6.641
     8   1 H        0.806     0.264     0.840     1.439
     9   1 H        0.926     0.080     1.976     2.198
    10   1 H        0.926     0.075     2.034     2.230
    11   1 H        0.926     0.060     2.194     2.316
    12   1 H        0.926     0.046     2.369     2.407
    13   1 H        0.924     0.063     2.161     2.299
    14   1 H        0.925     0.077     2.015     2.220

Wiberg/Mayer (AO) data.
largest (>0.10) Wiberg bond orders for each atom

     #   Z sym  total        # sym  WBO       # sym  WBO       # sym  WBO
 ---------------------------------------------------------------------------
     1   8 O    1.342 --     8 H    0.929     2 O    0.316
     2   8 O    2.251 --     3 C    0.935     4 C    0.901     1 O    0.316
     3   6 C    3.890 --     7 C    0.998     9 H    0.957     4 C    0.947
                             2 O    0.935
     4   6 C    3.882 --     5 C    1.020    10 H    0.961     3 C    0.947
                             2 O    0.901
     5   6 C    3.981 --     6 C    1.877     4 C    1.020    11 H    0.967
     6   6 C    3.988 --     5 C    1.877     7 C    1.026    12 H    0.969
     7   6 C    3.995 --     6 C    1.026     3 C    0.998    14 H    0.955
                            13 H    0.951
     8   1 H    0.930 --     1 O    0.929
     9   1 H    0.994 --     3 C    0.957
    10   1 H    0.994 --     4 C    0.961
    11   1 H    0.996 --     5 C    0.967
    12   1 H    0.997 --     6 C    0.969
    13   1 H    0.996 --     7 C    0.951
    14   1 H    0.994 --     7 C    0.955
 ---------------------------------------------------------------------------

molecular dipole:
                 x           y           z       tot (Debye)
 q only:        1.299      -0.146      -1.095
   full:        1.167      -0.263      -0.859       3.744

           -------------------------------------------------
          | TOTAL ENERGY              -22.214711715840 Eh   |
          | GRADIENT NORM               0.000928308058 Eh/α |
          | HOMO-LUMO GAP               3.145139056943 eV   |
           -------------------------------------------------

 * finished run on 2025/05/23 at 12:05:45.912
