                         Program Version 5.0.4 -  RELEASE  -
|  1> ! LooseOpt PBE0 RIJCOSX D3BJ def2-SVP def2/J
|  2> %geom Constraints
|  3> { B 1 5 2.288875967787941 C }
|  4> { B 0 1 2.502715380555486 C }
|  5>     end
|  6> end
|  7> %geom MaxIter 50 end
|  8> %output
|  9> xyzfile=True
| 10> end
| 11> %scf
| 12> maxiter 250
| 13> end
| 14> %output
| 15> Print[P_Hirshfeld] = 1
| 16> end
| 17> % maxcore
| 18> 4000
| 19> %pal nprocs 8
| 20> end
| 21> *xyz 0 2
| 22> O   -2.31759076   0.53573283   1.74437431
| 23> O   -0.50785903  -0.31909811   0.82454271
| 24> C   -0.73625204   0.18816023  -0.46064072
| 25> C    0.14221659   0.90443020   0.49828929
| 26> C    1.52213943   0.45177737   0.25353940
| 27> C    1.37506054  -0.61628099  -0.53230447
| 28> C    0.11358286  -0.67483300  -1.33289845
| 29> H   -2.22536682  -0.22554206   2.33972787
| 30> H   -1.75647654   0.50900411  -0.68405368
| 31> H   -0.18356255   1.78162901   1.05949052
| 32> H    2.40838871   0.74674171   0.81367301
| 33> H    2.19855512  -1.30329029  -0.75558640
| 34> H    0.28042308  -0.29107330  -2.35376985
| 35> H   -0.31325861  -1.68725774  -1.41438356
| 36> *
| 37>
| 38>                          ****END OF INPUT****
 Total Charge           Charge          ....    0
 Multiplicity           Mult            ....    2
 Number of Electrons    NEL             ....   53
Dispersion correction           -0.009716900
FINAL SINGLE POINT ENERGY      -344.360821464640
Dispersion correction            ... done
Dispersion correction           -0.009686025
FINAL SINGLE POINT ENERGY      -344.365022341714
Dispersion correction            ... done
Dispersion correction           -0.009671713
FINAL SINGLE POINT ENERGY      -344.365438311467
Dispersion correction            ... done
Dispersion correction           -0.009667581
FINAL SINGLE POINT ENERGY      -344.365518089970
Dispersion correction            ... done
Dispersion correction           -0.009667890
FINAL SINGLE POINT ENERGY      -344.365546763663
Dispersion correction            ... done
                    ***********************HURRAY********************

CARTESIAN COORDINATES (ANGSTROEM)
---------------------------------
  O     -2.476957    0.658234    1.815020
  O     -0.437516   -0.392253    0.814648
  C     -0.723608    0.146226   -0.443841
  C      0.155121    0.865825    0.511113
  C      1.543318    0.462006    0.229902
  C      1.388809   -0.612761   -0.547286
  C      0.128903   -0.672633   -1.352857
  H     -2.296957   -0.139800    2.341396
  H     -1.759922    0.435614   -0.638517
  H     -0.183505    1.718002    1.103457
  H      2.434023    0.767665    0.776472
  H      2.218490   -1.287734   -0.786698
  H      0.290568   -0.258670   -2.362498
  H     -0.280769   -1.689621   -1.460309

 Multiplicity           Mult            ....    2
 Number of Electrons    NEL             ....   53
 Basis Dimension        Dim             ....  133

ORBITAL ENERGIES
----------------
                 SPIN UP ORBITALS
  NO   OCC          E(Eh)            E(eV)
   0   1.0000     -19.237664      -523.4834
   1   1.0000     -19.224610      -523.1282
   2   1.0000     -10.287243      -279.9301
   3   1.0000     -10.286530      -279.9107
   4   1.0000     -10.242918      -278.7240
   5   1.0000     -10.239434      -278.6292
   6   1.0000     -10.231615      -278.4164
   7   1.0000      -1.129261       -30.7288
   8   1.0000      -0.988887       -26.9090
   9   1.0000      -0.839600       -22.8467
  10   1.0000      -0.751676       -20.4541
  11   1.0000      -0.676027       -18.3956
  12   1.0000      -0.596740       -16.2381
  13   1.0000      -0.565093       -15.3770
  14   1.0000      -0.561165       -15.2701
  15   1.0000      -0.470352       -12.7989
  16   1.0000      -0.468533       -12.7494
  17   1.0000      -0.453793       -12.3483
  18   1.0000      -0.434455       -11.8221
  19   1.0000      -0.411196       -11.1892
  20   1.0000      -0.397911       -10.8277
  21   1.0000      -0.391805       -10.6615
  22   1.0000      -0.368504       -10.0275
  23   1.0000      -0.327846        -8.9211
  24   1.0000      -0.317699        -8.6450
  25   1.0000      -0.300801        -8.1852
  26   1.0000      -0.242877        -6.6090
  27   0.0000      -0.004264        -0.1160
  28   0.0000       0.078015         2.1229
  29   0.0000       0.098149         2.6708
  30   0.0000       0.110012         2.9936
  31   0.0000       0.118629         3.2281

                 SPIN DOWN ORBITALS
  NO   OCC          E(Eh)            E(eV)
   0   1.0000     -19.222155      -523.0614
   1   1.0000     -19.211731      -522.7778
   2   1.0000     -10.287293      -279.9315
   3   1.0000     -10.286550      -279.9113
   4   1.0000     -10.242916      -278.7239
   5   1.0000     -10.239381      -278.6277
   6   1.0000     -10.231473      -278.4125
   7   1.0000      -1.126030       -30.6408
   8   1.0000      -0.916648       -24.9433
   9   1.0000      -0.838500       -22.8167
  10   1.0000      -0.751494       -20.4492
  11   1.0000      -0.674859       -18.3638
  12   1.0000      -0.596439       -16.2299
  13   1.0000      -0.563822       -15.3424
  14   1.0000      -0.559401       -15.2221
  15   1.0000      -0.468607       -12.7515
  16   1.0000      -0.467684       -12.7263
  17   1.0000      -0.433714       -11.8020
  18   1.0000      -0.426770       -11.6130
  19   1.0000      -0.406143       -11.0517
  20   1.0000      -0.397572       -10.8185
  21   1.0000      -0.373061       -10.1515
  22   1.0000      -0.326846        -8.8939
  23   1.0000      -0.298601        -8.1253
  24   1.0000      -0.291469        -7.9313
  25   1.0000      -0.242088        -6.5876
  26   0.0000      -0.107305        -2.9199
  27   0.0000      -0.003639        -0.0990
  28   0.0000       0.080262         2.1840
  29   0.0000       0.102664         2.7936
  30   0.0000       0.111007         3.0206

MULLIKEN ATOMIC CHARGES AND SPIN POPULATIONS
--------------------------------------------
   0 O :   -0.219947    0.964840
   1 O :   -0.327086    0.058704
   2 C :   -0.009613   -0.003544
   3 C :    0.078852   -0.004112
   4 C :    0.020663    0.009842
   5 C :   -0.137881   -0.000139
   6 C :    0.113012   -0.000041
   7 H :    0.185354   -0.026522
   8 H :    0.058576    0.001198
   9 H :    0.052023    0.000243
  10 H :    0.036034   -0.000500
  11 H :    0.028939    0.000344
  12 H :    0.062679   -0.000207
  13 H :    0.058395   -0.000104
Sum of atomic charges         :   -0.0000000

LOEWDIN ATOMIC CHARGES AND SPIN POPULATIONS
-------------------------------------------
   0 O :   -0.104326    0.930540
   1 O :   -0.142449    0.061819
   2 C :    0.048679   -0.000644
   3 C :    0.050526   -0.002129
   4 C :   -0.058728    0.007664
   5 C :   -0.003863    0.000643
   6 C :   -0.048067   -0.000200
   7 H :    0.060182    0.001479
   8 H :    0.024822    0.000711
   9 H :    0.027112    0.000230
  10 H :    0.033843    0.000021
  11 H :    0.023904    0.000166
  12 H :    0.043646   -0.000198
  13 H :    0.044720   -0.000103

  Mayer bond orders larger than 0.100000
B(  0-O ,  7-H ) :   0.9801 B(  1-O ,  2-C ) :   0.9391 B(  1-O ,  3-C ) :   0.9066
B(  2-C ,  3-C ) :   1.0144 B(  2-C ,  6-C ) :   0.9957 B(  2-C ,  8-H ) :   0.9702
B(  3-C ,  4-C ) :   0.9697 B(  3-C ,  9-H ) :   0.9807 B(  4-C ,  5-C ) :   1.8340
B(  4-C , 10-H ) :   0.9949 B(  5-C ,  6-C ) :   1.0201 B(  5-C , 11-H ) :   0.9660
B(  6-C , 12-H ) :   0.9239 B(  6-C , 13-H ) :   0.9240

Dispersion correction           -0.009670105
FINAL SINGLE POINT ENERGY      -344.365570887698

DIPOLE MOMENT
-------------
                                X             Y             Z
Electronic contribution:     -1.11229       0.63614       2.09555
Nuclear contribution   :      1.43538      -0.82609      -2.37429
                        -----------------------------------------
Total Dipole Moment    :      0.32309      -0.18995      -0.27875
                        -----------------------------------------
Magnitude (a.u.)       :      0.46708
Magnitude (Debye)      :      1.18724

Rotational constants in cm-1:     0.202900     0.065088     0.055728
Rotational constants in MHz :  6082.800640  1951.291554  1670.678750

                             ****ORCA TERMINATED NORMALLY****
TOTAL RUN TIME: 0 days 0 hours 1 minutes 0 seconds 709 msec
