   * xtb version 6.6.1 (8d0f1dd) compiled by 'conda@1efc2f54142f' on 2023-08-01
          program call               : /gpfs/fs1/home/copan/code/autode-practice/.pixi/envs/default/bin/xtb path_opt7_xtb.xyz --chrg 0 --uhf 1 --opt --input xcontrol_path_opt7_xtb

   ID    Z sym.   atoms
    1    8 O      1, 2
    2    6 C      3-7
    3    1 H      8-14
constraining bond 2 6 to    2.2184000 Å, actual value:    2.2702040 Å
constraining bond 1 2 to    2.8532000 Å, actual value:    2.6427961 Å

          :  Hamiltonian                  GFN2-xTB          :
 * total energy  :   -21.8600124 Eh     change       -0.6663576E-09 Eh
 * total energy  :   -21.9771926 Eh     change       -0.1171802E+00 Eh
 * total energy  :   -22.1861682 Eh     change       -0.2089756E+00 Eh
 * total energy  :   -22.1868557 Eh     change       -0.6874766E-03 Eh
 * total energy  :   -22.1871635 Eh     change       -0.3078473E-03 Eh
 * total energy  :   -22.1873768 Eh     change       -0.2132964E-03 Eh
 * total energy  :   -22.1874914 Eh     change       -0.1145182E-03 Eh
 * total energy  :   -22.1875235 Eh     change       -0.3209597E-04 Eh
 * total energy  :   -22.1875498 Eh     change       -0.2630029E-04 Eh
 * total energy  :   -22.1875764 Eh     change       -0.2666977E-04 Eh
 * total energy  :   -22.2175571 Eh     change       -0.5521145E-05 Eh
 * total energy  :   -22.2175611 Eh     change       -0.3988133E-05 Eh
 * total energy  :   -22.2175685 Eh     change       -0.7442823E-05 Eh
 * total energy  :   -22.2175744 Eh     change       -0.5836981E-05 Eh
 * total energy  :   -22.2175846 Eh     change       -0.1024419E-04 Eh
 * total energy  :   -22.2175897 Eh     change       -0.5124825E-05 Eh
 * total energy  :   -22.2175526 Eh     change        0.3718024E-04 Eh
 * total energy  :   -22.2175958 Eh     change       -0.4323821E-04 Eh
 * total energy  :   -22.2175975 Eh     change       -0.1745916E-05 Eh
   *** GEOMETRY OPTIMIZATION CONVERGED AFTER 130 ITERATIONS ***

 final structure:
================
14
 xtb: 6.6.1 (8d0f1dd)
O           -2.77104305008470        0.71128161061511        1.85174663056270
O           -0.56962197622192       -0.20211302737064        0.28306493359403
C           -0.39102229002361        0.34244053582432       -0.94544493516850
C            0.26379813869486        0.95158619153011        0.23595353719562
C            1.56076251232934        0.28362532436330        0.37825636279059
C            1.46011357660153       -0.75551095506226       -0.44967997149750
C            0.52459165436248       -0.63514441490535       -1.61562803596908
H           -2.06333477018075        0.29711481605982        1.34030360168530
H           -3.48380025514943        0.07184160755500        1.89535868489146
H           -0.08260911318211        1.84401749498358        0.72737166691936
H            2.27279052177963        0.44244627365233        1.16281667210866
H            2.23593421105399       -1.51157129104228       -0.51439945551888
H            1.04612350088337       -0.28104825063792       -2.50536823264157
H           -0.00268266086768       -1.55884591556334       -1.84430145895318

          :  Hamiltonian                  GFN2-xTB          :
         :: total energy             -22.217597537393 Eh    ::
         :: gradient norm              0.000426960257 Eh/a0 ::
         :: HOMO-LUMO gap              2.901984552247 eV    ::
         :: SCC energy               -22.479313939676 Eh    ::
         :: -> dispersion             -0.007999518751 Eh    ::
         :: repulsion energy           0.261077420117 Eh    ::

    * Orbital Energies and Occupations

         #    Occupation            Energy/Eh            Energy/eV
      -------------------------------------------------------------
         1        2.0000           -0.7401882             -20.1415
       ...           ...                  ...                  ...
         8        2.0000           -0.5670959             -15.4315
         9        2.0000           -0.5452494             -14.8370
        10        2.0000           -0.5364736             -14.5982
        11        2.0000           -0.5301503             -14.4261
        12        2.0000           -0.5027981             -13.6818
        13        2.0000           -0.4921697             -13.3926
        14        2.0000           -0.4845593             -13.1855
        15        2.0000           -0.4711149             -12.8197
        16        2.0000           -0.4570399             -12.4367
        17        2.0000           -0.4455891             -12.1251
        18        2.0000           -0.4245844             -11.5535
        19        2.0000           -0.4114554             -11.1963
        20        1.0000           -0.3472695              -9.4497 (HOMO)
        21                         -0.2406236              -6.5477 (LUMO)
        22                         -0.0814626              -2.2167
        23                          0.0546486               1.4871
        24                          0.0789728               2.1490
        25                          0.0907642               2.4698
        26                          0.1109840               3.0200
        27                          0.1406680               3.8278
        28                          0.1776741               4.8348
        29                          0.1868942               5.0857
        30                          0.2347090               6.3868
        31                          0.2436047               6.6288
       ...                                ...                  ...
        35                          0.6299711              17.1424
      -------------------------------------------------------------
                  HL-Gap            0.1066460 Eh            2.9020 eV

     #   Z          covCN         q      C6AA      α(0)
     1   8 O        1.610    -0.586    24.864     6.730
     2   8 O        1.742    -0.279    18.616     5.826
     3   6 C        2.968     0.032    27.286     8.568
     4   6 C        3.888     0.100    18.885     6.178
     5   6 C        2.944    -0.046    29.134     8.853
     6   6 C        3.174    -0.009    27.854     8.620
     7   6 C        3.833    -0.048    21.408     6.583
     8   1 H        0.805     0.295     0.738     1.349
     9   1 H        0.806     0.273     0.809     1.413
    10   1 H        0.926     0.056     2.242     2.342
    11   1 H        0.926     0.051     2.303     2.373
    12   1 H        0.925     0.034     2.526     2.485
    13   1 H        0.924     0.056     2.243     2.342
    14   1 H        0.925     0.071     2.079     2.255

Wiberg/Mayer (AO) data.
largest (>0.10) Wiberg bond orders for each atom

     #   Z sym  total        # sym  WBO       # sym  WBO       # sym  WBO
 ---------------------------------------------------------------------------
     1   8 O    1.827 --     9 H    0.925     8 H    0.883
     2   8 O    2.194 --     3 C    1.162     4 C    0.873
     3   6 C    3.255 --     2 O    1.162     7 C    1.006     4 C    0.930
     4   6 C    3.872 --     5 C    1.050    10 H    0.968     3 C    0.930
                             2 O    0.873
     5   6 C    3.985 --     6 C    1.847     4 C    1.050    11 H    0.968
     6   6 C    3.978 --     5 C    1.847     7 C    1.009    12 H    0.965
     7   6 C    3.991 --     6 C    1.009     3 C    1.006    14 H    0.958
                            13 H    0.954
     8   1 H    0.913 --     1 O    0.883
     9   1 H    0.926 --     1 O    0.925
    10   1 H    0.997 --     4 C    0.968
    11   1 H    0.997 --     5 C    0.968
    12   1 H    0.999 --     6 C    0.965
    13   1 H    0.997 --     7 C    0.954
    14   1 H    0.995 --     7 C    0.958
 ---------------------------------------------------------------------------

molecular dipole:
                 x           y           z       tot (Debye)
 q only:        0.713      -0.329      -0.724
   full:        0.796      -0.654      -0.623       3.060

           -------------------------------------------------
          | TOTAL ENERGY              -22.217597537393 Eh   |
          | GRADIENT NORM               0.000426960257 Eh/α |
          | HOMO-LUMO GAP               2.901984552247 eV   |
           -------------------------------------------------

 * finished run on 2025/05/23 at 12:05:47.858
