                         Program Version 5.0.4 -  RELEASE  -
|  1> ! LooseOpt PBE0 RIJCOSX D3BJ def2-SVP def2/J
|  2> %geom Constraints
|  3> { B 1 5 2.3398157440521055 C }
|  4> { B 0 1 2.20271538054999 C }
|  5>     end
|  6> end
|  7> %geom MaxIter 50 end
|  8> %output
|  9> xyzfile=True
| 10> end
| 11> %scf
| 12> maxiter 250
| 13> end
| 14> %output
| 15> Print[P_Hirshfeld] = 1
| 16> end
| 17> % maxcore
| 18> 4000
| 19> %pal nprocs 8
| 20> end
| 21> *xyz 0 2
| 22> O   -2.23080625  -0.41281512   1.73449051
| 23> O   -0.53916175  -0.28057517   0.87357397
| 24> C   -0.73642627   0.24150026  -0.40558724
| 25> C    0.17843659   0.91333141   0.54719929
| 26> C    1.53655083   0.41034767   0.28249885
| 27> C    1.35836075  -0.62173563  -0.54486417
| 28> C    0.07073529  -0.63709398  -1.30495871
| 29> H   -2.23101737   0.52063771   2.00119073
| 30> H   -1.74833996   0.59400483  -0.62573184
| 31> H   -0.08238489   1.81450057   1.10894287
| 32> H    2.43694551   0.66388733   0.84044283
| 33> H    2.16010987  -1.32175750  -0.80091064
| 34> H    0.21410469  -0.24800776  -2.32731533
| 35> H   -0.38710704  -1.63612463  -1.37897114
| 36> *
| 37>
| 38>                          ****END OF INPUT****
 Total Charge           Charge          ....    0
 Multiplicity           Mult            ....    2
 Number of Electrons    NEL             ....   53
Dispersion correction           -0.009667759
FINAL SINGLE POINT ENERGY      -344.363248349127
Dispersion correction            ... done
Dispersion correction           -0.009666196
FINAL SINGLE POINT ENERGY      -344.364350159730
Dispersion correction            ... done
Dispersion correction           -0.009672427
FINAL SINGLE POINT ENERGY      -344.365155538883
Dispersion correction            ... done
FINAL SINGLE POINT ENERGY      -344.365966599180
FINAL SINGLE POINT ENERGY      -344.366808895883
FINAL SINGLE POINT ENERGY      -344.367534565967
FINAL SINGLE POINT ENERGY      -344.368184225959
FINAL SINGLE POINT ENERGY      -344.368865989906
FINAL SINGLE POINT ENERGY      -344.369560240776
FINAL SINGLE POINT ENERGY      -344.370307826668
FINAL SINGLE POINT ENERGY      -344.370905078316
FINAL SINGLE POINT ENERGY      -344.371096580166
Dispersion correction            ... done
Dispersion correction           -0.009782168
FINAL SINGLE POINT ENERGY      -344.371148368521
Dispersion correction            ... done
Dispersion correction           -0.009781188
FINAL SINGLE POINT ENERGY      -344.371183829373
Dispersion correction            ... done
                    ***********************HURRAY********************

CARTESIAN COORDINATES (ANGSTROEM)
---------------------------------
  O     -2.317591    0.535733    1.744374
  O     -0.507859   -0.319098    0.824543
  C     -0.736252    0.188160   -0.460641
  C      0.142217    0.904430    0.498289
  C      1.522139    0.451777    0.253539
  C      1.375061   -0.616281   -0.532304
  C      0.113583   -0.674833   -1.332898
  H     -2.225367   -0.225542    2.339728
  H     -1.756477    0.509004   -0.684054
  H     -0.183563    1.781629    1.059491
  H      2.408389    0.746742    0.813673
  H      2.198555   -1.303290   -0.755586
  H      0.280423   -0.291073   -2.353770
  H     -0.313259   -1.687258   -1.414384

 Multiplicity           Mult            ....    2
 Number of Electrons    NEL             ....   53
 Basis Dimension        Dim             ....  133

ORBITAL ENERGIES
----------------
                 SPIN UP ORBITALS
  NO   OCC          E(Eh)            E(eV)
   0   1.0000     -19.235540      -523.4256
   1   1.0000     -19.211774      -522.7790
   2   1.0000     -10.289490      -279.9912
   3   1.0000     -10.288758      -279.9713
   4   1.0000     -10.245539      -278.7953
   5   1.0000     -10.241827      -278.6943
   6   1.0000     -10.235298      -278.5166
   7   1.0000      -1.135277       -30.8925
   8   1.0000      -0.966755       -26.3067
   9   1.0000      -0.843951       -22.9651
  10   1.0000      -0.753460       -20.5027
  11   1.0000      -0.679663       -18.4946
  12   1.0000      -0.600490       -16.3402
  13   1.0000      -0.569338       -15.4925
  14   1.0000      -0.564406       -15.3583
  15   1.0000      -0.475633       -12.9426
  16   1.0000      -0.469788       -12.7836
  17   1.0000      -0.438493       -11.9320
  18   1.0000      -0.435366       -11.8469
  19   1.0000      -0.412959       -11.2372
  20   1.0000      -0.402170       -10.9436
  21   1.0000      -0.385975       -10.5029
  22   1.0000      -0.361041        -9.8244
  23   1.0000      -0.329154        -8.9567
  24   1.0000      -0.298095        -8.1116
  25   1.0000      -0.294488        -8.0134
  26   1.0000      -0.246528        -6.7084
  27   0.0000      -0.006380        -0.1736
  28   0.0000       0.079147         2.1537
  29   0.0000       0.101169         2.7529
  30   0.0000       0.109220         2.9720
  31   0.0000       0.116774         3.1776

                 SPIN DOWN ORBITALS
  NO   OCC          E(Eh)            E(eV)
   0   1.0000     -19.230347      -523.2843
   1   1.0000     -19.186898      -522.1020
   2   1.0000     -10.289620      -279.9948
   3   1.0000     -10.288866      -279.9743
   4   1.0000     -10.245509      -278.7945
   5   1.0000     -10.241726      -278.6915
   6   1.0000     -10.235134      -278.5122
   7   1.0000      -1.128492       -30.7078
   8   1.0000      -0.900533       -24.5048
   9   1.0000      -0.841387       -22.8953
  10   1.0000      -0.753168       -20.4948
  11   1.0000      -0.677132       -18.4257
  12   1.0000      -0.599866       -16.3232
  13   1.0000      -0.567377       -15.4391
  14   1.0000      -0.560743       -15.2586
  15   1.0000      -0.471291       -12.8245
  16   1.0000      -0.468906       -12.7596
  17   1.0000      -0.434582       -11.8256
  18   1.0000      -0.416069       -11.3218
  19   1.0000      -0.404102       -10.9962
  20   1.0000      -0.401768       -10.9327
  21   1.0000      -0.376513       -10.2454
  22   1.0000      -0.329448        -8.9647
  23   1.0000      -0.301165        -8.1951
  24   1.0000      -0.271462        -7.3869
  25   1.0000      -0.250055        -6.8043
  26   0.0000      -0.078188        -2.1276
  27   0.0000      -0.005461        -0.1486
  28   0.0000       0.080492         2.1903
  29   0.0000       0.104383         2.8404
  30   0.0000       0.111733         3.0404

MULLIKEN ATOMIC CHARGES AND SPIN POPULATIONS
--------------------------------------------
   0 O :   -0.258481    0.900732
   1 O :   -0.305359    0.122817
   2 C :   -0.001535   -0.007368
   3 C :    0.083967   -0.007926
   4 C :    0.024662    0.009434
   5 C :   -0.140343    0.003307
   6 C :    0.112174    0.000371
   7 H :    0.173125   -0.024030
   8 H :    0.062503    0.002144
   9 H :    0.055081    0.001138
  10 H :    0.036718   -0.000428
  11 H :    0.031270   -0.000076
  12 H :    0.064857    0.000091
  13 H :    0.061361   -0.000205
Sum of atomic charges         :    0.0000000

LOEWDIN ATOMIC CHARGES AND SPIN POPULATIONS
-------------------------------------------
   0 O :   -0.151872    0.861379
   1 O :   -0.106712    0.131124
   2 C :    0.053404   -0.002768
   3 C :    0.054386   -0.004531
   4 C :   -0.055570    0.007715
   5 C :   -0.006392    0.002668
   6 C :   -0.048063    0.000591
   7 H :    0.052657    0.002383
   8 H :    0.027574    0.001030
   9 H :    0.029358    0.000521
  10 H :    0.034699    0.000127
  11 H :    0.025295   -0.000002
  12 H :    0.044990   -0.000047
  13 H :    0.046246   -0.000189

  Mayer bond orders larger than 0.100000
B(  0-O ,  1-O ) :   0.1740 B(  0-O ,  7-H ) :   0.9856 B(  1-O ,  2-C ) :   0.9236
B(  1-O ,  3-C ) :   0.8937 B(  2-C ,  3-C ) :   1.0225 B(  2-C ,  6-C ) :   0.9954
B(  2-C ,  8-H ) :   0.9666 B(  3-C ,  4-C ) :   0.9688 B(  3-C ,  9-H ) :   0.9773
B(  4-C ,  5-C ) :   1.8329 B(  4-C , 10-H ) :   0.9957 B(  5-C ,  6-C ) :   1.0206
B(  5-C , 11-H ) :   0.9666 B(  6-C , 12-H ) :   0.9245 B(  6-C , 13-H ) :   0.9232

Dispersion correction           -0.009780262
FINAL SINGLE POINT ENERGY      -344.371190238544

DIPOLE MOMENT
-------------
                                X             Y             Z
Electronic contribution:     -0.92052       0.63879       1.92319
Nuclear contribution   :      1.39098      -0.83919      -2.30595
                        -----------------------------------------
Total Dipole Moment    :      0.47045      -0.20039      -0.38276
                        -----------------------------------------
Magnitude (a.u.)       :      0.63874
Magnitude (Debye)      :      1.62355

Rotational constants in cm-1:     0.202292     0.070171     0.059519
Rotational constants in MHz :  6064.560001  2103.663122  1784.346734

                             ****ORCA TERMINATED NORMALLY****
TOTAL RUN TIME: 0 days 0 hours 2 minutes 51 seconds 763 msec
