                         Program Version 5.0.4 -  RELEASE  -
|  1> ! LooseOpt PBE0 RIJCOSX D3BJ def2-SVP def2/J
|  2> %geom Constraints
|  3> { B 1 5 2.8901723543034668 C }
|  4> { B 0 1 1.6794854123263885 C }
|  5>     end
|  6> end
|  7> %geom MaxIter 50 end
|  8> %output
|  9> xyzfile=True
| 10> end
| 11> %scf
| 12> maxiter 250
| 13> end
| 14> %output
| 15> Print[P_Hirshfeld] = 1
| 16> end
| 17> % maxcore
| 18> 4000
| 19> %pal nprocs 8
| 20> end
| 21> *xyz 0 2
| 22> O   -2.52388884  -0.68411664   0.77291146
| 23> O   -1.17455427   0.13873338   1.15769672
| 24> C   -0.62413549   0.48839581  -0.08441377
| 25> C    0.56934732   1.31605017   0.30516703
| 26> C    1.72829758   0.57242345   0.11128546
| 27> C    1.43712410  -0.64249984  -0.49415431
| 28> C   -0.02191553  -0.72733977  -0.80949384
| 29> H   -2.70015850  -0.97002533   1.68116584
| 30> H   -1.37780731   1.03301617  -0.68094028
| 31> H    0.49067401   2.30061972   0.76608801
| 32> H    2.73098900   0.90389064   0.38971051
| 33> H    2.16977864  -1.40783703  -0.75648139
| 34> H   -0.19052286  -0.67388781  -1.90068496
| 35> H   -0.51322783  -1.64732292  -0.45785650
| 36> *
| 37>
| 38>                          ****END OF INPUT****
 Total Charge           Charge          ....    0
 Multiplicity           Mult            ....    2
 Number of Electrons    NEL             ....   53
Dispersion correction           -0.010147487
FINAL SINGLE POINT ENERGY      -344.360895063367
Dispersion correction            ... done
Dispersion correction           -0.010112990
FINAL SINGLE POINT ENERGY      -344.369666136922
Dispersion correction            ... done
Dispersion correction           -0.010108741
FINAL SINGLE POINT ENERGY      -344.372667421140
Dispersion correction            ... done
FINAL SINGLE POINT ENERGY      -344.373248709928
FINAL SINGLE POINT ENERGY      -344.373601298944
Dispersion correction            ... done
Dispersion correction           -0.010122783
FINAL SINGLE POINT ENERGY      -344.373714680535
Dispersion correction            ... done
Dispersion correction           -0.010123922
FINAL SINGLE POINT ENERGY      -344.373739589290
Dispersion correction            ... done
                    ***********************HURRAY********************

CARTESIAN COORDINATES (ANGSTROEM)
---------------------------------
  O     -2.398486   -0.775137    0.893158
  O     -1.013639    0.148958    1.114335
  C     -0.646624    0.544749   -0.173763
  C      0.553175    1.375282    0.192410
  C      1.663649    0.535647    0.178556
  C      1.321940   -0.694757   -0.364283
  C     -0.067774   -0.662371   -0.907404
  H     -2.373554   -1.130010    1.794166
  H     -1.470447    1.072086   -0.682775
  H      0.494054    2.390679    0.583227
  H      2.656272    0.802019    0.547091
  H      2.006505   -1.538006   -0.476165
  H     -0.051158   -0.514771   -2.003582
  H     -0.673911   -1.554269   -0.694973

 Multiplicity           Mult            ....    2
 Number of Electrons    NEL             ....   53
 Basis Dimension        Dim             ....  133

ORBITAL ENERGIES
----------------
                 SPIN UP ORBITALS
  NO   OCC          E(Eh)            E(eV)
   0   1.0000     -19.262280      -524.1533
   1   1.0000     -19.245611      -523.6997
   2   1.0000     -10.286440      -279.9083
   3   1.0000     -10.253901      -279.0228
   4   1.0000     -10.251856      -278.9672
   5   1.0000     -10.244109      -278.7564
   6   1.0000     -10.233251      -278.4609
   7   1.0000      -1.068091       -29.0642
   8   1.0000      -0.954704       -25.9788
   9   1.0000      -0.864384       -23.5211
  10   1.0000      -0.736849       -20.0507
  11   1.0000      -0.707013       -19.2388
  12   1.0000      -0.580819       -15.8049
  13   1.0000      -0.560815       -15.2606
  14   1.0000      -0.542601       -14.7649
  15   1.0000      -0.494400       -13.4533
  16   1.0000      -0.480790       -13.0830
  17   1.0000      -0.440346       -11.9824
  18   1.0000      -0.409274       -11.1369
  19   1.0000      -0.401865       -10.9353
  20   1.0000      -0.397604       -10.8194
  21   1.0000      -0.386613       -10.5203
  22   1.0000      -0.351915        -9.5761
  23   1.0000      -0.337992        -9.1972
  24   1.0000      -0.322729        -8.7819
  25   1.0000      -0.268583        -7.3085
  26   1.0000      -0.207798        -5.6545
  27   0.0000      -0.056910        -1.5486
  28   0.0000       0.036629         0.9967
  29   0.0000       0.080132         2.1805
  30   0.0000       0.095284         2.5928
  31   0.0000       0.114342         3.1114

                 SPIN DOWN ORBITALS
  NO   OCC          E(Eh)            E(eV)
   0   1.0000     -19.262641      -524.1631
   1   1.0000     -19.242181      -523.6064
   2   1.0000     -10.286916      -279.9212
   3   1.0000     -10.248096      -278.8649
   4   1.0000     -10.244572      -278.7690
   5   1.0000     -10.241922      -278.6969
   6   1.0000     -10.233839      -278.4769
   7   1.0000      -1.065389       -28.9907
   8   1.0000      -0.947762       -25.7899
   9   1.0000      -0.855492       -23.2791
  10   1.0000      -0.730685       -19.8830
  11   1.0000      -0.693311       -18.8660
  12   1.0000      -0.574035       -15.6203
  13   1.0000      -0.556185       -15.1346
  14   1.0000      -0.536157       -14.5896
  15   1.0000      -0.488372       -13.2893
  16   1.0000      -0.477968       -13.0062
  17   1.0000      -0.435075       -11.8390
  18   1.0000      -0.404968       -11.0197
  19   1.0000      -0.398177       -10.8349
  20   1.0000      -0.392431       -10.6786
  21   1.0000      -0.381920       -10.3926
  22   1.0000      -0.344281        -9.3684
  23   1.0000      -0.332472        -9.0470
  24   1.0000      -0.301336        -8.1998
  25   1.0000      -0.266670        -7.2564
  26   0.0000      -0.084322        -2.2945
  27   0.0000      -0.035634        -0.9697
  28   0.0000       0.061121         1.6632
  29   0.0000       0.082739         2.2514
  30   0.0000       0.097601         2.6558

MULLIKEN ATOMIC CHARGES AND SPIN POPULATIONS
--------------------------------------------
   0 O :   -0.217674    0.120049
   1 O :   -0.260968   -0.040627
   2 C :    0.067401   -0.039915
   3 C :   -0.041365    0.659154
   4 C :    0.006786   -0.309340
   5 C :   -0.088245    0.679564
   6 C :    0.067273   -0.056872
   7 H :    0.189787   -0.002690
   8 H :    0.041984    0.005882
   9 H :    0.047411   -0.031654
  10 H :    0.031486    0.010904
  11 H :    0.036071   -0.033507
  12 H :    0.058925    0.031427
  13 H :    0.061127    0.007626
Sum of atomic charges         :    0.0000000

LOEWDIN ATOMIC CHARGES AND SPIN POPULATIONS
-------------------------------------------
   0 O :   -0.110789    0.108584
   1 O :   -0.088390   -0.024616
   2 C :    0.037727    0.002907
   3 C :   -0.015497    0.512963
   4 C :   -0.037038   -0.167286
   5 C :    0.006293    0.539188
   6 C :   -0.055368   -0.007725
   7 H :    0.069775    0.001170
   8 H :    0.019226    0.004991
   9 H :    0.030406   -0.001135
  10 H :    0.035088    0.000677
  11 H :    0.025955   -0.001525
  12 H :    0.042838    0.024923
  13 H :    0.039775    0.006884

  Mayer bond orders larger than 0.100000
B(  0-O ,  1-O ) :   0.8681 B(  0-O ,  7-H ) :   0.9728 B(  1-O ,  2-C ) :   0.9487
B(  2-C ,  3-C ) :   0.9979 B(  2-C ,  6-C ) :   1.0231 B(  2-C ,  8-H ) :   0.9419
B(  3-C ,  4-C ) :   1.3531 B(  3-C ,  9-H ) :   0.9898 B(  4-C ,  5-C ) :   1.4282
B(  4-C , 10-H ) :   0.9941 B(  5-C ,  6-C ) :   1.0039 B(  5-C , 11-H ) :   0.9821
B(  6-C , 12-H ) :   0.9215 B(  6-C , 13-H ) :   0.9265

Dispersion correction           -0.010123734
FINAL SINGLE POINT ENERGY      -344.373746012840

DIPOLE MOMENT
-------------
                                X             Y             Z
Electronic contribution:     -1.35126       0.54054       1.98997
Nuclear contribution   :      1.83716      -0.63208      -2.06183
                        -----------------------------------------
Total Dipole Moment    :      0.48589      -0.09153      -0.07186
                        -----------------------------------------
Magnitude (a.u.)       :      0.49963
Magnitude (Debye)      :      1.26996

Rotational constants in cm-1:     0.181930     0.071347     0.060924
Rotational constants in MHz :  5454.120188  2138.935455  1826.455066

                             ****ORCA TERMINATED NORMALLY****
TOTAL RUN TIME: 0 days 0 hours 1 minutes 23 seconds 711 msec
