   * xtb version 6.6.1 (8d0f1dd) compiled by 'conda@1efc2f54142f' on 2023-08-01
          program call               : /gpfs/fs1/home/copan/code/autode-practice/.pixi/envs/default/bin/xtb path_opt3_xtb.xyz --chrg 0 --uhf 1 --opt --input xcontrol_path_opt3_xtb

   ID    Z sym.   atoms
    1    8 O      1, 2
    2    6 C      3-7
    3    1 H      8-14
constraining bond 2 6 to    2.4474000 Å, actual value:    2.6294341 Å
constraining bond 1 2 to    1.7830000 Å, actual value:    1.7163074 Å

          :  Hamiltonian                  GFN2-xTB          :
 * total energy  :   -21.9456397 Eh     change       -0.1014101E-08 Eh
 * total energy  :   -22.0794374 Eh     change       -0.1337977E+00 Eh
 * total energy  :   -22.1971453 Eh     change       -0.1177079E+00 Eh
 * total energy  :   -22.1971485 Eh     change       -0.3226828E-05 Eh
 * total energy  :   -22.1993379 Eh     change       -0.2189413E-02 Eh
 * total energy  :   -22.1997284 Eh     change       -0.3904661E-03 Eh
 * total energy  :   -22.2001801 Eh     change       -0.4516540E-03 Eh
 * total energy  :   -22.2004064 Eh     change       -0.2263209E-03 Eh
 * total energy  :   -22.2006913 Eh     change       -0.2848831E-03 Eh
 * total energy  :   -22.2009963 Eh     change       -0.3050130E-03 Eh
 * total energy  :   -22.2094580 Eh     change       -0.5094789E-04 Eh
 * total energy  :   -22.2095081 Eh     change       -0.5013677E-04 Eh
 * total energy  :   -22.2095457 Eh     change       -0.3757337E-04 Eh
 * total energy  :   -22.2095594 Eh     change       -0.1371580E-04 Eh
 * total energy  :   -22.2095778 Eh     change       -0.1837101E-04 Eh
 * total energy  :   -22.2095870 Eh     change       -0.9255278E-05 Eh
 * total energy  :   -22.2095975 Eh     change       -0.1049527E-04 Eh
 * total energy  :   -22.2096016 Eh     change       -0.4042441E-05 Eh
 * total energy  :   -22.2096036 Eh     change       -0.2062976E-05 Eh
   *** GEOMETRY OPTIMIZATION CONVERGED AFTER 36 ITERATIONS ***

 final structure:
================
14
 xtb: 6.6.1 (8d0f1dd)
O           -2.32526401329621       -0.18738880907656        1.43659651345977
O           -0.66016392742577        0.07027663532370        0.83766934381422
C           -0.69278051709000        0.38596126664239       -0.51102101501938
C            0.22520385524231        1.12468708108563        0.38139727366588
C            1.50519338579783        0.41982719875253        0.33217040322224
C            1.31993252594443       -0.67598973669899       -0.40153745468910
C            0.07850585485959       -0.68561310585915       -1.23198325590068
H           -2.14187329183373       -0.50410166755084        2.32184551467990
H           -1.61286729759225        0.81212078378204       -0.88403867160126
H            0.04558786718650        2.11431316759908        0.76603980995367
H            2.34808685515035        0.65632133783412        0.95241079999440
H            2.06517086517725       -1.44403099567971       -0.53712862338817
H            0.29194763340094       -0.44702419823646       -2.27543636740164
H           -0.44668979552115       -1.63926895791779       -1.18696427078978

          :  Hamiltonian                  GFN2-xTB          :
         :: total energy             -22.209603627945 Eh    ::
         :: gradient norm              0.000801241737 Eh/a0 ::
         :: HOMO-LUMO gap              2.330134271242 eV    ::
         :: SCC energy               -22.470245741331 Eh    ::
         :: -> dispersion             -0.008477164212 Eh    ::
         :: repulsion energy           0.260265386275 Eh    ::

    * Orbital Energies and Occupations

         #    Occupation            Energy/Eh            Energy/eV
      -------------------------------------------------------------
         1        2.0000           -0.7397366             -20.1293
       ...           ...                  ...                  ...
         8        2.0000           -0.5759721             -15.6730
         9        2.0000           -0.5475820             -14.9005
        10        2.0000           -0.5415999             -14.7377
        11        2.0000           -0.5213754             -14.1873
        12        2.0000           -0.4979458             -13.5498
        13        2.0000           -0.4885567             -13.2943
        14        2.0000           -0.4825758             -13.1316
        15        2.0000           -0.4781405             -13.0109
        16        2.0000           -0.4625499             -12.5866
        17        2.0000           -0.4465522             -12.1513
        18        2.0000           -0.4219296             -11.4813
        19        2.0000           -0.3931357             -10.6978
        20        1.0000           -0.3202209              -8.7137 (HOMO)
        21                         -0.2345900              -6.3835 (LUMO)
        22                         -0.0972496              -2.6463
        23                          0.0523064               1.4233
        24                          0.0746964               2.0326
        25                          0.0857446               2.3332
        26                          0.0919423               2.5019
        27                          0.1413191               3.8455
        28                          0.1717941               4.6748
        29                          0.2054993               5.5919
        30                          0.2111980               5.7470
        31                          0.2178665               5.9284
       ...                                ...                  ...
        35                          0.6300099              17.1434
      -------------------------------------------------------------
                  HL-Gap            0.0856309 Eh            2.3301 eV

     #   Z          covCN         q      C6AA      α(0)
     1   8 O        1.048    -0.532    24.388     6.626
     2   8 O        1.950    -0.169    16.822     5.539
     3   6 C        3.830     0.112    18.731     6.158
     4   6 C        3.831     0.078    19.254     6.243
     5   6 C        2.942    -0.045    29.124     8.851
     6   6 C        3.045    -0.024    28.547     8.763
     7   6 C        3.836    -0.070    21.808     6.644
     8   1 H        0.806     0.267     0.830     1.431
     9   1 H        0.926     0.072     2.067     2.248
    10   1 H        0.926     0.061     2.185     2.312
    11   1 H        0.926     0.057     2.229     2.335
    12   1 H        0.926     0.048     2.349     2.397
    13   1 H        0.924     0.062     2.180     2.309
    14   1 H        0.925     0.083     1.952     2.185

Wiberg/Mayer (AO) data.
largest (>0.10) Wiberg bond orders for each atom

     #   Z sym  total        # sym  WBO       # sym  WBO       # sym  WBO
 ---------------------------------------------------------------------------
     1   8 O    1.488 --     8 H    0.926     2 O    0.389
     2   8 O    2.268 --     3 C    0.944     4 C    0.820     1 O    0.389
     3   6 C    3.900 --     7 C    0.999     9 H    0.959     2 O    0.944
                             4 C    0.943
     4   6 C    3.882 --     5 C    1.051    10 H    0.967     3 C    0.943
                             2 O    0.820
     5   6 C    3.981 --     6 C    1.833     4 C    1.051    11 H    0.967
     6   6 C    3.982 --     5 C    1.833     7 C    1.029    12 H    0.970
     7   6 C    3.995 --     6 C    1.029     3 C    0.999    14 H    0.952
                            13 H    0.952
     8   1 H    0.929 --     1 O    0.926
     9   1 H    0.995 --     3 C    0.959
    10   1 H    0.996 --     4 C    0.967
    11   1 H    0.997 --     5 C    0.967
    12   1 H    0.998 --     6 C    0.970
    13   1 H    0.996 --     7 C    0.952
    14   1 H    0.993 --     7 C    0.952
 ---------------------------------------------------------------------------

molecular dipole:
                 x           y           z       tot (Debye)
 q only:        1.348       0.232      -0.866
   full:        1.274       0.252      -0.612       3.649

           -------------------------------------------------
          | TOTAL ENERGY              -22.209603627945 Eh   |
          | GRADIENT NORM               0.000801241737 Eh/α |
          | HOMO-LUMO GAP               2.330134271242 eV   |
           -------------------------------------------------

 * finished run on 2025/05/23 at 12:05:45.474
