   * xtb version 6.6.1 (8d0f1dd) compiled by 'conda@1efc2f54142f' on 2023-08-01
          program call               : /gpfs/fs1/home/copan/code/autode-practice/.pixi/envs/default/bin/xtb path_opt0_xtb.xyz --chrg 0 --uhf 1 --opt --input xcontrol_path_opt0_xtb

   ID    Z sym.   atoms
    1    8 O      1, 2
    2    6 C      3-7
    3    1 H      8-14
constraining bond 2 6 to    3.1874000 Å, actual value:    3.3876187 Å
constraining bond 1 2 to    1.6266000 Å, actual value:    1.4271403 Å

          :  Hamiltonian                  GFN2-xTB          :
 * total energy  :   -21.6774536 Eh     change       -0.1780620E-10 Eh
 * total energy  :   -22.0555412 Eh     change       -0.3780876E+00 Eh
 * total energy  :   -22.2265067 Eh     change       -0.1709655E+00 Eh
 * total energy  :   -22.2177573 Eh     change        0.8749343E-02 Eh
 * total energy  :   -22.2263318 Eh     change       -0.8574450E-02 Eh
 * total energy  :   -22.2297254 Eh     change       -0.3393552E-02 Eh
 * total energy  :   -22.2300023 Eh     change       -0.2769824E-03 Eh
 * total energy  :   -22.2304664 Eh     change       -0.4640266E-03 Eh
 * total energy  :   -22.2306061 Eh     change       -0.1396993E-03 Eh
 * total energy  :   -22.2310821 Eh     change       -0.4759946E-03 Eh
 * total energy  :   -22.2339450 Eh     change       -0.2397401E-04 Eh
 * total energy  :   -22.2339633 Eh     change       -0.1826600E-04 Eh
 * total energy  :   -22.2339727 Eh     change       -0.9444265E-05 Eh
 * total energy  :   -22.2339926 Eh     change       -0.1989486E-04 Eh
 * total energy  :   -22.2340009 Eh     change       -0.8301347E-05 Eh
 * total energy  :   -22.2340089 Eh     change       -0.7940514E-05 Eh
 * total energy  :   -22.2340111 Eh     change       -0.2297679E-05 Eh
 * total energy  :   -22.2340140 Eh     change       -0.2874251E-05 Eh
 * total energy  :   -22.2340157 Eh     change       -0.1668052E-05 Eh
   *** GEOMETRY OPTIMIZATION CONVERGED AFTER 35 ITERATIONS ***

 final structure:
================
14
 xtb: 6.6.1 (8d0f1dd)
O           -2.51744763699497       -0.74946549325308        0.88283278619901
O           -1.18250281335599        0.14609387154866        1.07801039425064
C           -0.62177589116221        0.46261996569337       -0.14686667124927
C            0.54505726984622        1.28367502433522        0.31932626928456
C            1.71202805557169        0.57241388680471        0.12791744853594
C            1.46608902303040       -0.61030860582135       -0.52677462887141
C            0.02126403271473       -0.75175651228808       -0.84345289608753
H           -2.83017281430491       -0.72015225487113        1.79099170757056
H           -1.33784661600505        1.00392299769739       -0.78062304078504
H            0.42315246902749        2.21696383450540        0.83178305564627
H            2.68499022857419        0.91281891488512        0.43799939386557
H            2.20007883738323       -1.34440468150185       -0.80442726182655
H           -0.15526519976842       -0.74903776519745       -1.92213885157418
H           -0.40764894455642       -1.67328318253690       -0.44457770495858

          :  Hamiltonian                  GFN2-xTB          :
         :: total energy             -22.234015691152 Eh    ::
         :: gradient norm              0.000516727225 Eh/a0 ::
         :: HOMO-LUMO gap              1.962193292410 eV    ::
         :: SCC energy               -22.485300868592 Eh    ::
         :: -> dispersion             -0.008644706443 Eh    ::
         :: repulsion energy           0.250889748355 Eh    ::

    * Orbital Energies and Occupations

         #    Occupation            Energy/Eh            Energy/eV
      -------------------------------------------------------------
         1        2.0000           -0.6997499             -19.0412
       ...           ...                  ...                  ...
         8        2.0000           -0.5597366             -15.2312
         9        2.0000           -0.5497591             -14.9597
        10        2.0000           -0.5416621             -14.7394
        11        2.0000           -0.5159702             -14.0403
        12        2.0000           -0.5057868             -13.7632
        13        2.0000           -0.4825244             -13.1302
        14        2.0000           -0.4677096             -12.7270
        15        2.0000           -0.4632553             -12.6058
        16        2.0000           -0.4590570             -12.4916
        17        2.0000           -0.4552798             -12.3888
        18        2.0000           -0.4403261             -11.9819
        19        2.0000           -0.4101313             -11.1602
        20        1.0000           -0.3306597              -8.9977 (HOMO)
        21                         -0.2585504              -7.0355 (LUMO)
        22                         -0.1822177              -4.9584
        23                          0.0600511               1.6341
        24                          0.0773025               2.1035
        25                          0.1160766               3.1586
        26                          0.1371102               3.7310
        27                          0.1461544               3.9771
        28                          0.1569411               4.2706
        29                          0.1620639               4.4100
        30                          0.2084117               5.6712
        31                          0.2392539               6.5104
       ...                                ...                  ...
        35                          0.6094202              16.5832
      -------------------------------------------------------------
                  HL-Gap            0.0721093 Eh            1.9622 eV

     #   Z          covCN         q      C6AA      α(0)
     1   8 O        1.442    -0.377    20.616     6.118
     2   8 O        1.504    -0.236    18.040     5.728
     3   6 C        3.778     0.135    18.414     6.114
     4   6 C        2.990    -0.040    28.982     8.831
     5   6 C        2.946    -0.025    28.625     8.775
     6   6 C        2.981    -0.028    28.705     8.789
     7   6 C        3.845    -0.071    21.830     6.646
     8   1 H        0.805     0.310     0.691     1.306
     9   1 H        0.923     0.040     2.450     2.448
    10   1 H        0.926     0.054     2.270     2.356
    11   1 H        0.926     0.047     2.354     2.399
    12   1 H        0.926     0.046     2.374     2.410
    13   1 H        0.924     0.059     2.206     2.322
    14   1 H        0.924     0.086     1.922     2.168

Wiberg/Mayer (AO) data.
largest (>0.10) Wiberg bond orders for each atom

     #   Z sym  total        # sym  WBO       # sym  WBO       # sym  WBO
 ---------------------------------------------------------------------------
     1   8 O    1.899 --     8 H    0.901     2 O    0.861
     2   8 O    2.020 --     3 C    1.006     1 O    0.861
     3   6 C    3.948 --     2 O    1.006     7 C    0.978     4 C    0.968
                             9 H    0.945
     4   6 C    3.791 --     5 C    1.463    10 H    0.973     3 C    0.968
                             6 C    0.183
     5   6 C    3.990 --     6 C    1.494     4 C    1.463    11 H    0.967
     6   6 C    3.817 --     5 C    1.494     7 C    1.062    12 H    0.973
                             4 C    0.183
     7   6 C    3.997 --     6 C    1.062     3 C    0.978    13 H    0.944
                            14 H    0.943
     8   1 H    0.904 --     1 O    0.901
     9   1 H    0.998 --     3 C    0.945
    10   1 H    0.997 --     4 C    0.973
    11   1 H    0.996 --     5 C    0.967
    12   1 H    0.998 --     6 C    0.973
    13   1 H    0.996 --     7 C    0.944
    14   1 H    0.992 --     7 C    0.943
 ---------------------------------------------------------------------------

molecular dipole:
                 x           y           z       tot (Debye)
 q only:        0.588       0.088      -0.278
   full:        0.495       0.110      -0.167       1.356

           -------------------------------------------------
          | TOTAL ENERGY              -22.234015691152 Eh   |
          | GRADIENT NORM               0.000516727225 Eh/α |
          | HOMO-LUMO GAP               1.962193292410 eV   |
           -------------------------------------------------

 * finished run on 2025/05/23 at 12:05:44.358
