                         Program Version 5.0.4 -  RELEASE  -
|  1> ! LooseOpt PBE0 RIJCOSX D3BJ def2-SVP def2/J
|  2> %geom Constraints
|  3> { B 1 5 3.1874443151760237 C }
|  4> { B 0 1 1.6266055560153312 C }
|  5>     end
|  6> end
|  7> %geom MaxIter 50 end
|  8> %output
|  9> xyzfile=True
| 10> end
| 11> %scf
| 12> maxiter 250
| 13> end
| 14> %output
| 15> Print[P_Hirshfeld] = 1
| 16> end
| 17> % maxcore
| 18> 4000
| 19> %pal nprocs 8
| 20> end
| 21> *xyz 0 2
| 22> O   -2.58147633  -0.38913938   0.74681068
| 23> O   -1.35598400   0.21684048   1.15443841
| 24> C   -0.62172292   0.48691014  -0.02396715
| 25> C    0.58045043   1.28603721   0.38299150
| 26> C    1.74192643   0.59376667   0.06710155
| 27> C    1.44892851  -0.61490690  -0.55302787
| 28> C   -0.03335736  -0.77665679  -0.69184529
| 29> H   -2.58639934  -1.16996235   1.31665098
| 30> H   -1.28390909   1.04649351  -0.71183855
| 31> H    0.51169767   2.25409764   0.87950655
| 32> H    2.75181635   0.95520230   0.27316928
| 33> H    2.18296084  -1.34205239  -0.90408629
| 34> H   -0.33773590  -0.86732522  -1.74900863
| 35> H   -0.41719526  -1.67920492  -0.18689520
| 36> *
| 37>
| 38>                          ****END OF INPUT****
 Total Charge           Charge          ....    0
 Multiplicity           Mult            ....    2
 Number of Electrons    NEL             ....   53
Dispersion correction           -0.010043664
FINAL SINGLE POINT ENERGY      -344.375152590555
Dispersion correction            ... done
Dispersion correction           -0.010020781
FINAL SINGLE POINT ENERGY      -344.380340522582
Dispersion correction            ... done
Dispersion correction           -0.009995567
FINAL SINGLE POINT ENERGY      -344.382340850365
Dispersion correction            ... done
FINAL SINGLE POINT ENERGY      -344.382929434799
FINAL SINGLE POINT ENERGY      -344.383214795687
Dispersion correction            ... done
Dispersion correction           -0.009955669
FINAL SINGLE POINT ENERGY      -344.383316502059
Dispersion correction            ... done
Dispersion correction           -0.009954961
FINAL SINGLE POINT ENERGY      -344.383332737450
Dispersion correction            ... done
                    ***********************HURRAY********************

CARTESIAN COORDINATES (ANGSTROEM)
---------------------------------
  O     -2.523889   -0.684117    0.772911
  O     -1.174554    0.138733    1.157697
  C     -0.624135    0.488396   -0.084414
  C      0.569347    1.316050    0.305167
  C      1.728298    0.572423    0.111285
  C      1.437124   -0.642500   -0.494154
  C     -0.021916   -0.727340   -0.809494
  H     -2.700158   -0.970025    1.681166
  H     -1.377807    1.033016   -0.680940
  H      0.490674    2.300620    0.766088
  H      2.730989    0.903891    0.389711
  H      2.169779   -1.407837   -0.756481
  H     -0.190523   -0.673888   -1.900685
  H     -0.513228   -1.647323   -0.457856

 Multiplicity           Mult            ....    2
 Number of Electrons    NEL             ....   53
 Basis Dimension        Dim             ....  133

ORBITAL ENERGIES
----------------
                 SPIN UP ORBITALS
  NO   OCC          E(Eh)            E(eV)
   0   1.0000     -19.264688      -524.2188
   1   1.0000     -19.252333      -523.8826
   2   1.0000     -10.285726      -279.8888
   3   1.0000     -10.249472      -278.9023
   4   1.0000     -10.248862      -278.8857
   5   1.0000     -10.242221      -278.7050
   6   1.0000     -10.233222      -278.4601
   7   1.0000      -1.079363       -29.3710
   8   1.0000      -0.950082       -25.8530
   9   1.0000      -0.864863       -23.5341
  10   1.0000      -0.733761       -19.9666
  11   1.0000      -0.707374       -19.2486
  12   1.0000      -0.581347       -15.8193
  13   1.0000      -0.560843       -15.2613
  14   1.0000      -0.537697       -14.6315
  15   1.0000      -0.502002       -13.6602
  16   1.0000      -0.485773       -13.2186
  17   1.0000      -0.437537       -11.9060
  18   1.0000      -0.408266       -11.1095
  19   1.0000      -0.405070       -11.0225
  20   1.0000      -0.394138       -10.7250
  21   1.0000      -0.387889       -10.5550
  22   1.0000      -0.352116        -9.5816
  23   1.0000      -0.345124        -9.3913
  24   1.0000      -0.325202        -8.8492
  25   1.0000      -0.267352        -7.2750
  26   1.0000      -0.204269        -5.5584
  27   0.0000      -0.042767        -1.1637
  28   0.0000       0.039919         1.0862
  29   0.0000       0.079914         2.1746
  30   0.0000       0.092525         2.5177
  31   0.0000       0.112615         3.0644

                 SPIN DOWN ORBITALS
  NO   OCC          E(Eh)            E(eV)
   0   1.0000     -19.264132      -524.2037
   1   1.0000     -19.250871      -523.8428
   2   1.0000     -10.286334      -279.9054
   3   1.0000     -10.246266      -278.8151
   4   1.0000     -10.239409      -278.6285
   5   1.0000     -10.239085      -278.6197
   6   1.0000     -10.233856      -278.4774
   7   1.0000      -1.076820       -29.3018
   8   1.0000      -0.946149       -25.7460
   9   1.0000      -0.855477       -23.2787
  10   1.0000      -0.727319       -19.7914
  11   1.0000      -0.693310       -18.8659
  12   1.0000      -0.573768       -15.6130
  13   1.0000      -0.555553       -15.1174
  14   1.0000      -0.531453       -14.4616
  15   1.0000      -0.497629       -13.5412
  16   1.0000      -0.482784       -13.1372
  17   1.0000      -0.432946       -11.7811
  18   1.0000      -0.403478       -10.9792
  19   1.0000      -0.399476       -10.8703
  20   1.0000      -0.387896       -10.5552
  21   1.0000      -0.384910       -10.4739
  22   1.0000      -0.347051        -9.4437
  23   1.0000      -0.340953        -9.2778
  24   1.0000      -0.301752        -8.2111
  25   1.0000      -0.266168        -7.2428
  26   0.0000      -0.075942        -2.0665
  27   0.0000      -0.028308        -0.7703
  28   0.0000       0.062591         1.7032
  29   0.0000       0.083062         2.2602
  30   0.0000       0.094544         2.5727

MULLIKEN ATOMIC CHARGES AND SPIN POPULATIONS
--------------------------------------------
   0 O :   -0.201147    0.051518
   1 O :   -0.266656   -0.004806
   2 C :    0.103561   -0.044419
   3 C :   -0.058914    0.685479
   4 C :    0.004328   -0.315131
   5 C :   -0.103507    0.689406
   6 C :    0.057187   -0.061033
   7 H :    0.191344   -0.001326
   8 H :    0.042391    0.013966
   9 H :    0.044263   -0.033192
  10 H :    0.030865    0.010869
  11 H :    0.037337   -0.034180
  12 H :    0.058049    0.028932
  13 H :    0.060898    0.013916
Sum of atomic charges         :    0.0000000

LOEWDIN ATOMIC CHARGES AND SPIN POPULATIONS
-------------------------------------------
   0 O :   -0.094519    0.045763
   1 O :   -0.090036    0.006369
   2 C :    0.038714    0.001394
   3 C :   -0.023220    0.534645
   4 C :   -0.040716   -0.169442
   5 C :   -0.004282    0.545318
   6 C :   -0.055303   -0.009429
   7 H :    0.072785    0.000503
   8 H :    0.020150    0.012030
   9 H :    0.029282   -0.001466
  10 H :    0.034766    0.000473
  11 H :    0.026100   -0.001596
  12 H :    0.043278    0.023749
  13 H :    0.043000    0.011690

  Mayer bond orders larger than 0.100000
B(  0-O ,  1-O ) :   0.9089 B(  0-O ,  7-H ) :   0.9717 B(  1-O ,  2-C ) :   0.9458
B(  2-C ,  3-C ) :   1.0133 B(  2-C ,  6-C ) :   1.0265 B(  2-C ,  8-H ) :   0.9301
B(  3-C ,  4-C ) :   1.3754 B(  3-C ,  5-C ) :   0.1161 B(  3-C ,  9-H ) :   0.9877
B(  4-C ,  5-C ) :   1.4233 B(  4-C , 10-H ) :   0.9948 B(  5-C ,  6-C ) :   1.0210
B(  5-C , 11-H ) :   0.9846 B(  6-C , 12-H ) :   0.9224 B(  6-C , 13-H ) :   0.9220

Dispersion correction           -0.009955023
FINAL SINGLE POINT ENERGY      -344.383340734620

DIPOLE MOMENT
-------------
                                X             Y             Z
Electronic contribution:     -1.61990       0.52184       2.05708
Nuclear contribution   :      1.94562      -0.63441      -2.08597
                        -----------------------------------------
Total Dipole Moment    :      0.32571      -0.11257      -0.02890
                        -----------------------------------------
Magnitude (a.u.)       :      0.34583
Magnitude (Debye)      :      0.87902

Rotational constants in cm-1:     0.195976     0.067148     0.056034
Rotational constants in MHz :  5875.226828  2013.055685  1679.842879

                             ****ORCA TERMINATED NORMALLY****
TOTAL RUN TIME: 0 days 0 hours 1 minutes 17 seconds 693 msec
