   * xtb version 6.6.1 (8d0f1dd) compiled by 'conda@1efc2f54142f' on 2023-08-01
          program call               : /gpfs/fs1/home/copan/code/autode-practice/.pixi/envs/default/bin/xtb path_opt2_xtb.xyz --chrg 0 --uhf 1 --opt --input xcontrol_path_opt2_xtb

   ID    Z sym.   atoms
    1    8 O      1, 2
    2    6 C      3-7
    3    1 H      8-14
constraining bond 2 6 to    2.6266000 Å, actual value:    2.8928087 Å
constraining bond 1 2 to    1.7221000 Å, actual value:    1.6659069 Å

          :  Hamiltonian                  GFN2-xTB          :
 * total energy  :   -21.6974441 Eh     change       -0.8011831E-09 Eh
 * total energy  :   -22.0756015 Eh     change       -0.3781574E+00 Eh
 * total energy  :   -22.2034475 Eh     change       -0.1278459E+00 Eh
 * total energy  :   -22.2072216 Eh     change       -0.3774134E-02 Eh
 * total energy  :   -22.2105963 Eh     change       -0.3374695E-02 Eh
 * total energy  :   -22.2114787 Eh     change       -0.8824360E-03 Eh
 * total energy  :   -22.2121537 Eh     change       -0.6749848E-03 Eh
 * total energy  :   -22.2126891 Eh     change       -0.5353659E-03 Eh
 * total energy  :   -22.2129445 Eh     change       -0.2554670E-03 Eh
 * total energy  :   -22.2131260 Eh     change       -0.1814928E-03 Eh
 * total energy  :   -22.2137059 Eh     change       -0.8859428E-05 Eh
 * total energy  :   -22.2137210 Eh     change       -0.1515437E-04 Eh
 * total energy  :   -22.2137388 Eh     change       -0.1778155E-04 Eh
 * total energy  :   -22.2137496 Eh     change       -0.1080416E-04 Eh
 * total energy  :   -22.2137616 Eh     change       -0.1198982E-04 Eh
 * total energy  :   -22.2137677 Eh     change       -0.6070066E-05 Eh
 * total energy  :   -22.2137709 Eh     change       -0.3282500E-05 Eh
 * total energy  :   -22.2137737 Eh     change       -0.2798401E-05 Eh
 * total energy  :   -22.2137748 Eh     change       -0.1083295E-05 Eh
   *** GEOMETRY OPTIMIZATION CONVERGED AFTER 29 ITERATIONS ***

 final structure:
================
14
 xtb: 6.6.1 (8d0f1dd)
O           -2.20182263865242       -0.88068381386872        1.11401048231052
O           -0.86615185681304        0.18465268363948        0.95040452134157
C           -0.66480342866326        0.53623643281658       -0.36211852228527
C            0.46798454670101        1.36326194547445        0.16103949863006
C            1.56164309919495        0.50680615159400        0.26894493441842
C            1.26419237624502       -0.69233340647654       -0.31706903961444
C           -0.02516816434194       -0.66113609269520       -1.05181465899484
H           -2.26069013232710       -0.84034274406779        2.06941839479939
H           -1.50959384061031        1.02513404352431       -0.84784241647267
H            0.34683421748324        2.34157463893051        0.58119588796886
H            2.47966311977143        0.74169373640707        0.77711692209147
H            1.91591230605450       -1.54935856446617       -0.32971985553755
H            0.12455266493944       -0.52449538011686       -2.12606279049781
H           -0.63255226898147       -1.55090963069516       -0.88749335815772

          :  Hamiltonian                  GFN2-xTB          :
         :: total energy             -22.213774819520 Eh    ::
         :: gradient norm              0.000746315415 Eh/a0 ::
         :: HOMO-LUMO gap              2.282975038745 eV    ::
         :: SCC energy               -22.468291939603 Eh    ::
         :: -> dispersion             -0.008826805871 Eh    ::
         :: repulsion energy           0.254200284736 Eh    ::

    * Orbital Energies and Occupations

         #    Occupation            Energy/Eh            Energy/eV
      -------------------------------------------------------------
         1        2.0000           -0.7010204             -19.0757
       ...           ...                  ...                  ...
         8        2.0000           -0.5607457             -15.2587
         9        2.0000           -0.5468690             -14.8811
        10        2.0000           -0.5329217             -14.5015
        11        2.0000           -0.5128233             -13.9546
        12        2.0000           -0.4991550             -13.5827
        13        2.0000           -0.4829775             -13.1425
        14        2.0000           -0.4777217             -12.9995
        15        2.0000           -0.4700490             -12.7907
        16        2.0000           -0.4576334             -12.4528
        17        2.0000           -0.4424206             -12.0389
        18        2.0000           -0.4400552             -11.9745
        19        2.0000           -0.4033435             -10.9755
        20        1.0000           -0.3462965              -9.4232 (HOMO)
        21                         -0.2623987              -7.1402 (LUMO)
        22                         -0.1853286              -5.0430
        23                          0.0264542               0.7199
        24                          0.0838152               2.2807
        25                          0.1021147               2.7787
        26                          0.1330676               3.6210
        27                          0.1454533               3.9580
        28                          0.1635109               4.4494
        29                          0.1887854               5.1371
        30                          0.2096439               5.7047
        31                          0.2338382               6.3631
       ...                                ...                  ...
        35                          0.6046381              16.4530
      -------------------------------------------------------------
                  HL-Gap            0.0838978 Eh            2.2830 eV

     #   Z          covCN         q      C6AA      α(0)
     1   8 O        1.207    -0.434    22.146     6.321
     2   8 O        1.485    -0.266    18.562     5.809
     3   6 C        3.839     0.142    18.267     6.080
     4   6 C        3.213    -0.008    27.550     8.541
     5   6 C        2.957    -0.019    28.476     8.753
     6   6 C        3.033    -0.005    28.109     8.696
     7   6 C        3.842    -0.070    21.812     6.644
     8   1 H        0.806     0.292     0.744     1.355
     9   1 H        0.924     0.040     2.454     2.450
    10   1 H        0.926     0.065     2.144     2.290
    11   1 H        0.926     0.056     2.252     2.347
    12   1 H        0.926     0.053     2.278     2.360
    13   1 H        0.924     0.062     2.172     2.305
    14   1 H        0.925     0.092     1.858     2.132

Wiberg/Mayer (AO) data.
largest (>0.10) Wiberg bond orders for each atom

     #   Z sym  total        # sym  WBO       # sym  WBO       # sym  WBO
 ---------------------------------------------------------------------------
     1   8 O    1.870 --     8 H    0.912     2 O    0.699     4 C    0.126
     2   8 O    2.017 --     3 C    1.007     1 O    0.699     4 C    0.209
     3   6 C    3.949 --     2 O    1.007     7 C    0.981     9 H    0.958
                             4 C    0.946
     4   6 C    3.812 --     5 C    1.377    10 H    0.972     3 C    0.946
                             2 O    0.209     6 C    0.134     1 O    0.126
     5   6 C    3.989 --     6 C    1.549     4 C    1.377    11 H    0.967
     6   6 C    3.862 --     5 C    1.549     7 C    1.057    12 H    0.972
                             4 C    0.134
     7   6 C    3.995 --     6 C    1.057     3 C    0.981    14 H    0.948
                            13 H    0.937
     8   1 H    0.915 --     1 O    0.912
     9   1 H    0.998 --     3 C    0.958
    10   1 H    0.996 --     4 C    0.972
    11   1 H    0.997 --     5 C    0.967
    12   1 H    0.997 --     6 C    0.972
    13   1 H    0.996 --     7 C    0.937
    14   1 H    0.991 --     7 C    0.948
 ---------------------------------------------------------------------------

molecular dipole:
                 x           y           z       tot (Debye)
 q only:        1.031       0.317      -0.564
   full:        0.952       0.374      -0.388       2.781

           -------------------------------------------------
          | TOTAL ENERGY              -22.213774819520 Eh   |
          | GRADIENT NORM               0.000746315415 Eh/α |
          | HOMO-LUMO GAP               2.282975038745 eV   |
           -------------------------------------------------

 * finished run on 2025/05/23 at 12:05:45.076
