                         Program Version 5.0.4 -  RELEASE  -
|  1> ! LooseOpt PBE0 RIJCOSX D3BJ def2-SVP def2/J
|  2> %geom Constraints
|  3> { B 1 5 3.387444315176024 C }
|  4> { B 0 1 1.4266055560153312 C }
|  5>     end
|  6> end
|  7> %geom MaxIter 50 end
|  8> %output
|  9> xyzfile=True
| 10> end
| 11> %scf
| 12> maxiter 250
| 13> end
| 14> %output
| 15> Print[P_Hirshfeld] = 1
| 16> end
| 17> % maxcore
| 18> 4000
| 19> %pal nprocs 8
| 20> end
| 21> *xyz 0 2
| 22> O   -2.58135924  -0.38940613   0.74707096
| 23> O   -1.35599755   0.21692513   1.15456884
| 24> C   -0.62180302   0.48700608  -0.02399779
| 25> C    0.58041863   1.28610268   0.38274866
| 26> C    1.74186518   0.59366293   0.06719868
| 27> C    1.44889011  -0.61504371  -0.55283037
| 28> C   -0.03338686  -0.77653912  -0.69196366
| 29> H   -2.58594131  -1.17020509   1.31692077
| 30> H   -1.28414955   1.04646812  -0.71179936
| 31> H    0.51178548   2.25427826   0.87901556
| 32> H    2.75174454   0.95499832   0.27336628
| 33> H    2.18294599  -1.34227180  -0.90358870
| 34> H   -0.33739950  -0.86676909  -1.74925865
| 35> H   -0.41761288  -1.67910658  -0.18745124
| 36> *
| 37>
| 38>                          ****END OF INPUT****
 Total Charge           Charge          ....    0
 Multiplicity           Mult            ....    2
 Number of Electrons    NEL             ....   53
Dispersion correction           -0.009952894
FINAL SINGLE POINT ENERGY      -344.396843775212
Dispersion correction            ... done
                    ***********************HURRAY********************

CARTESIAN COORDINATES (ANGSTROEM)
---------------------------------
  O     -2.581476   -0.389139    0.746811
  O     -1.355984    0.216840    1.154438
  C     -0.621723    0.486910   -0.023967
  C      0.580450    1.286037    0.382992
  C      1.741926    0.593767    0.067102
  C      1.448929   -0.614907   -0.553028
  C     -0.033357   -0.776657   -0.691845
  H     -2.586399   -1.169962    1.316651
  H     -1.283909    1.046494   -0.711839
  H      0.511698    2.254098    0.879507
  H      2.751816    0.955202    0.273169
  H      2.182961   -1.342052   -0.904086
  H     -0.337736   -0.867325   -1.749009
  H     -0.417195   -1.679205   -0.186895

 Multiplicity           Mult            ....    2
 Number of Electrons    NEL             ....   53
 Basis Dimension        Dim             ....  133

ORBITAL ENERGIES
----------------
                 SPIN UP ORBITALS
  NO   OCC          E(Eh)            E(eV)
   0   1.0000     -19.257645      -524.0272
   1   1.0000     -19.254523      -523.9422
   2   1.0000     -10.285340      -279.8783
   3   1.0000     -10.247218      -278.8410
   4   1.0000     -10.243419      -278.7376
   5   1.0000     -10.240235      -278.6510
   6   1.0000     -10.237428      -278.5746
   7   1.0000      -1.144074       -31.1318
   8   1.0000      -0.933487       -25.4015
   9   1.0000      -0.861955       -23.4550
  10   1.0000      -0.733367       -19.9559
  11   1.0000      -0.709771       -19.3139
  12   1.0000      -0.587414       -15.9843
  13   1.0000      -0.563025       -15.3207
  14   1.0000      -0.547392       -14.8953
  15   1.0000      -0.532704       -14.4956
  16   1.0000      -0.483582       -13.1589
  17   1.0000      -0.453119       -12.3300
  18   1.0000      -0.421579       -11.4718
  19   1.0000      -0.404097       -10.9960
  20   1.0000      -0.394231       -10.7276
  21   1.0000      -0.387440       -10.5428
  22   1.0000      -0.361918        -9.8483
  23   1.0000      -0.334037        -9.0896
  24   1.0000      -0.320790        -8.7291
  25   1.0000      -0.261730        -7.1220
  26   1.0000      -0.200414        -5.4535
  27   0.0000       0.024678         0.6715
  28   0.0000       0.061336         1.6690
  29   0.0000       0.080256         2.1839
  30   0.0000       0.096442         2.6243
  31   0.0000       0.113571         3.0904

                 SPIN DOWN ORBITALS
  NO   OCC          E(Eh)            E(eV)
   0   1.0000     -19.256784      -524.0037
   1   1.0000     -19.254305      -523.9363
   2   1.0000     -10.286018      -279.8968
   3   1.0000     -10.244418      -278.7648
   4   1.0000     -10.238087      -278.5925
   5   1.0000     -10.236901      -278.5602
   6   1.0000     -10.233326      -278.4629
   7   1.0000      -1.142783       -31.0967
   8   1.0000      -0.930371       -25.3167
   9   1.0000      -0.852993       -23.2111
  10   1.0000      -0.727142       -19.7865
  11   1.0000      -0.695837       -18.9347
  12   1.0000      -0.578660       -15.7461
  13   1.0000      -0.559057       -15.2127
  14   1.0000      -0.541638       -14.7387
  15   1.0000      -0.528636       -14.3849
  16   1.0000      -0.479906       -13.0589
  17   1.0000      -0.449978       -12.2445
  18   1.0000      -0.414231       -11.2718
  19   1.0000      -0.398782       -10.8514
  20   1.0000      -0.390291       -10.6204
  21   1.0000      -0.382314       -10.4033
  22   1.0000      -0.358626        -9.7587
  23   1.0000      -0.325504        -8.8574
  24   1.0000      -0.300607        -8.1799
  25   1.0000      -0.260886        -7.0991
  26   0.0000      -0.062835        -1.7098
  27   0.0000       0.037943         1.0325
  28   0.0000       0.066902         1.8205
  29   0.0000       0.088090         2.3971
  30   0.0000       0.100103         2.7239

MULLIKEN ATOMIC CHARGES AND SPIN POPULATIONS
--------------------------------------------
   0 O :   -0.166017    0.008376
   1 O :   -0.274237    0.011516
   2 C :    0.132692   -0.049838
   3 C :   -0.064426    0.701661
   4 C :   -0.003506   -0.325624
   5 C :   -0.112308    0.708808
   6 C :    0.043573   -0.064537
   7 H :    0.192362   -0.000231
   8 H :    0.045194    0.021439
   9 H :    0.041622   -0.033948
  10 H :    0.030222    0.011196
  11 H :    0.035559   -0.035102
  12 H :    0.058148    0.024036
  13 H :    0.041121    0.022249
Sum of atomic charges         :   -0.0000000

LOEWDIN ATOMIC CHARGES AND SPIN POPULATIONS
-------------------------------------------
   0 O :   -0.062862    0.006659
   1 O :   -0.097011    0.018237
   2 C :    0.041786   -0.001223
   3 C :   -0.028500    0.547894
   4 C :   -0.042319   -0.175150
   5 C :   -0.017544    0.559026
   6 C :   -0.056593   -0.010027
   7 H :    0.073290    0.000224
   8 H :    0.021963    0.018539
   9 H :    0.029300   -0.001585
  10 H :    0.034201    0.000391
  11 H :    0.025037   -0.001447
  12 H :    0.041481    0.020585
  13 H :    0.037771    0.017876

  Mayer bond orders larger than 0.100000
B(  0-O ,  1-O ) :   0.9291 B(  0-O ,  7-H ) :   0.9732 B(  1-O ,  2-C ) :   0.9211
B(  2-C ,  3-C ) :   1.0253 B(  2-C ,  6-C ) :   1.0332 B(  2-C ,  8-H ) :   0.9213
B(  3-C ,  4-C ) :   1.3988 B(  3-C ,  5-C ) :   0.1293 B(  3-C ,  9-H ) :   0.9884
B(  4-C ,  5-C ) :   1.4116 B(  4-C , 10-H ) :   0.9953 B(  5-C ,  6-C ) :   1.0333
B(  5-C , 11-H ) :   0.9865 B(  6-C , 12-H ) :   0.9273 B(  6-C , 13-H ) :   0.9189

Dispersion correction           -0.009952866
FINAL SINGLE POINT ENERGY      -344.396843778644

DIPOLE MOMENT
-------------
                                X             Y             Z
Electronic contribution:     -1.99762       0.81137       2.10571
Nuclear contribution   :      2.35886      -1.29793      -2.28493
                        -----------------------------------------
Total Dipole Moment    :      0.36125      -0.48656      -0.17923
                        -----------------------------------------
Magnitude (a.u.)       :      0.63195
Magnitude (Debye)      :      1.60629

Rotational constants in cm-1:     0.209775     0.066325     0.054644
Rotational constants in MHz :  6288.897790  1988.387050  1638.199370

                             ****ORCA TERMINATED NORMALLY****
TOTAL RUN TIME: 0 days 0 hours 0 minutes 15 seconds 477 msec
