   * xtb version 6.6.1 (8d0f1dd) compiled by 'conda@1efc2f54142f' on 2023-08-01
          program call               : /gpfs/fs1/home/copan/code/autode-practice/.pixi/envs/default/bin/xtb path_opt1_xtb.xyz --chrg 0 --uhf 1 --opt --input xcontrol_path_opt1_xtb

   ID    Z sym.   atoms
    1    8 O      1, 2
    2    6 C      3-7
    3    1 H      8-14
constraining bond 2 6 to    2.8915000 Å, actual value:    3.1878662 Å
constraining bond 1 2 to    1.6726000 Å, actual value:    1.6193255 Å

          :  Hamiltonian                  GFN2-xTB          :
 * total energy  :   -21.5868107 Eh     change       -0.1372378E-09 Eh
 * total energy  :   -22.0748299 Eh     change       -0.4880191E+00 Eh
 * total energy  :   -22.2090767 Eh     change       -0.1342469E+00 Eh
 * total energy  :   -22.2147517 Eh     change       -0.5675019E-02 Eh
 * total energy  :   -22.2195920 Eh     change       -0.4840315E-02 Eh
 * total energy  :   -22.2210022 Eh     change       -0.1410123E-02 Eh
 * total energy  :   -22.2221414 Eh     change       -0.1139246E-02 Eh
 * total energy  :   -22.2231506 Eh     change       -0.1009219E-02 Eh
 * total energy  :   -22.2237778 Eh     change       -0.6271667E-03 Eh
 * total energy  :   -22.2242837 Eh     change       -0.5059167E-03 Eh
 * total energy  :   -22.2257558 Eh     change       -0.3602090E-04 Eh
 * total energy  :   -22.2257743 Eh     change       -0.1842952E-04 Eh
 * total energy  :   -22.2257870 Eh     change       -0.1276589E-04 Eh
 * total energy  :   -22.2257931 Eh     change       -0.6077397E-05 Eh
 * total energy  :   -22.2257999 Eh     change       -0.6759628E-05 Eh
 * total energy  :   -22.2258043 Eh     change       -0.4466257E-05 Eh
 * total energy  :   -22.2258054 Eh     change       -0.1035664E-05 Eh
 * total energy  :   -22.2258058 Eh     change       -0.3728526E-06 Eh
 * total energy  :   -22.2258062 Eh     change       -0.4118850E-06 Eh
   *** GEOMETRY OPTIMIZATION CONVERGED AFTER 33 ITERATIONS ***

 final structure:
================
14
 xtb: 6.6.1 (8d0f1dd)
O           -2.33039186021640       -0.85198997093429        1.02085647728850
O           -1.01964571863028        0.17619709033763        1.01525522319399
C           -0.65134834593841        0.51398654915549       -0.26806427665658
C            0.50594934977007        1.33988429937010        0.21054826095134
C            1.63067609627067        0.53169039288334        0.21415746641559
C            1.36056805143863       -0.66647763896227       -0.39639570183626
C           -0.01139340608417       -0.69329345452346       -0.96124459678669
H           -2.50516491756695       -0.81664386785263        1.96382023865369
H           -1.44292985679515        1.02370018148858       -0.82564662415014
H            0.38925084876283        2.30766477645849        0.65576387144276
H            2.58020290292117        0.80945737330820        0.63718768799565
H            2.05319149356374       -1.48196674905930       -0.50661288349492
H            0.00275643327435       -0.59147429474632       -2.04995741368442
H           -0.56173107077019       -1.60064468692356       -0.70966772933256

          :  Hamiltonian                  GFN2-xTB          :
         :: total energy             -22.225806165821 Eh    ::
         :: gradient norm              0.000625319712 Eh/a0 ::
         :: HOMO-LUMO gap              2.063088619060 eV    ::
         :: SCC energy               -22.478795021847 Eh    ::
         :: -> dispersion             -0.008760079878 Eh    ::
         :: repulsion energy           0.252638330260 Eh    ::

    * Orbital Energies and Occupations

         #    Occupation            Energy/Eh            Energy/eV
      -------------------------------------------------------------
         1        2.0000           -0.6980056             -18.9937
       ...           ...                  ...                  ...
         8        2.0000           -0.5580308             -15.1848
         9        2.0000           -0.5493771             -14.9493
        10        2.0000           -0.5382321             -14.6460
        11        2.0000           -0.5144616             -13.9992
        12        2.0000           -0.5023498             -13.6696
        13        2.0000           -0.4822169             -13.1218
        14        2.0000           -0.4728089             -12.8658
        15        2.0000           -0.4670960             -12.7103
        16        2.0000           -0.4557408             -12.4013
        17        2.0000           -0.4520113             -12.2999
        18        2.0000           -0.4424697             -12.0402
        19        2.0000           -0.4071081             -11.0780
        20        1.0000           -0.3391836              -9.2297 (HOMO)
        21                         -0.2633665              -7.1666 (LUMO)
        22                         -0.1844664              -5.0196
        23                          0.0459914               1.2515
        24                          0.0820974               2.2340
        25                          0.1078388               2.9344
        26                          0.1370071               3.7282
        27                          0.1468584               3.9962
        28                          0.1605309               4.3683
        29                          0.1750374               4.7630
        30                          0.2099244               5.7123
        31                          0.2354260               6.4063
       ...                                ...                  ...
        35                          0.6067014              16.5092
      -------------------------------------------------------------
                  HL-Gap            0.0758171 Eh            2.0631 eV

     #   Z          covCN         q      C6AA      α(0)
     1   8 O        1.331    -0.403    21.330     6.213
     2   8 O        1.449    -0.252    18.377     5.777
     3   6 C        3.803     0.139    18.329     6.095
     4   6 C        3.050    -0.026    28.604     8.771
     5   6 C        2.952    -0.022    28.542     8.763
     6   6 C        3.000    -0.016    28.395     8.741
     7   6 C        3.844    -0.071    21.817     6.644
     8   1 H        0.805     0.302     0.714     1.327
     9   1 H        0.924     0.036     2.500     2.473
    10   1 H        0.926     0.059     2.209     2.324
    11   1 H        0.926     0.051     2.306     2.375
    12   1 H        0.926     0.050     2.323     2.383
    13   1 H        0.924     0.062     2.177     2.307
    14   1 H        0.924     0.089     1.886     2.148

Wiberg/Mayer (AO) data.
largest (>0.10) Wiberg bond orders for each atom

     #   Z sym  total        # sym  WBO       # sym  WBO       # sym  WBO
 ---------------------------------------------------------------------------
     1   8 O    1.893 --     8 H    0.906     2 O    0.791     4 C    0.104
     2   8 O    2.018 --     3 C    1.010     1 O    0.791     4 C    0.123
     3   6 C    3.950 --     2 O    1.010     7 C    0.977     9 H    0.955
                             4 C    0.954
     4   6 C    3.800 --     5 C    1.432    10 H    0.973     3 C    0.954
                             6 C    0.162     2 O    0.123     1 O    0.104
     5   6 C    3.990 --     6 C    1.515     4 C    1.432    11 H    0.967
     6   6 C    3.839 --     5 C    1.515     7 C    1.062    12 H    0.972
                             4 C    0.162
     7   6 C    3.996 --     6 C    1.062     3 C    0.977    14 H    0.947
                            13 H    0.938
     8   1 H    0.909 --     1 O    0.906
     9   1 H    0.999 --     3 C    0.955
    10   1 H    0.997 --     4 C    0.973
    11   1 H    0.997 --     5 C    0.967
    12   1 H    0.998 --     6 C    0.972
    13   1 H    0.995 --     7 C    0.938
    14   1 H    0.992 --     7 C    0.947
 ---------------------------------------------------------------------------

molecular dipole:
                 x           y           z       tot (Debye)
 q only:        0.820       0.186      -0.418
   full:        0.742       0.222      -0.276       2.091

           -------------------------------------------------
          | TOTAL ENERGY              -22.225806165821 Eh   |
          | GRADIENT NORM               0.000625319712 Eh/α |
          | HOMO-LUMO GAP               2.063088619060 eV   |
           -------------------------------------------------

 * finished run on 2025/05/23 at 12:05:44.726
