                         Program Version 5.0.4 -  RELEASE  -
|  1> ! LooseOpt PBE0 RIJCOSX D3BJ def2-SVP def2/J
|  2> %geom Constraints
|  3> { B 1 5 2.3935222392160265 C }
|  4> { B 0 1 1.9027153795007314 C }
|  5>     end
|  6> end
|  7> %geom MaxIter 50 end
|  8> %output
|  9> xyzfile=True
| 10> end
| 11> %scf
| 12> maxiter 250
| 13> end
| 14> %output
| 15> Print[P_Hirshfeld] = 1
| 16> end
| 17> % maxcore
| 18> 4000
| 19> %pal nprocs 8
| 20> end
| 21> *xyz 0 2
| 22> O   -2.19866823  -0.95153572   0.99381022
| 23> O   -0.76850039   0.12632830   1.01753764
| 24> C   -0.65793155   0.58120606  -0.28552993
| 25> C    0.52241403   1.40626018   0.13336433
| 26> C    1.59340067   0.51019733   0.22482010
| 27> C    1.18134787  -0.71032522  -0.27481930
| 28> C   -0.09686608  -0.60480012  -1.03842669
| 29> H   -2.15557097  -1.07063890   1.95402350
| 30> H   -1.55223837   1.09291778  -0.67103755
| 31> H    0.46002319   2.42269307   0.52040436
| 32> H    2.55457048   0.70749737   0.70132163
| 33> H    1.79498382  -1.61428201  -0.24578881
| 34> H    0.09171027  -0.43037696  -2.11348348
| 35> H   -0.76867473  -1.46504117  -0.91619603
| 36> *
| 37>
| 38>                          ****END OF INPUT****
 Total Charge           Charge          ....    0
 Multiplicity           Mult            ....    2
 Number of Electrons    NEL             ....   53
Dispersion correction           -0.010263239
FINAL SINGLE POINT ENERGY      -344.333971282378
Dispersion correction            ... done
Dispersion correction           -0.010190380
FINAL SINGLE POINT ENERGY      -344.335897920470
Dispersion correction            ... done
Dispersion correction           -0.010004109
FINAL SINGLE POINT ENERGY      -344.339177252511
Dispersion correction            ... done
FINAL SINGLE POINT ENERGY      -344.346636179094
FINAL SINGLE POINT ENERGY      -344.345727114743
FINAL SINGLE POINT ENERGY      -344.349492788654
FINAL SINGLE POINT ENERGY      -344.349891377921
FINAL SINGLE POINT ENERGY      -344.350241130143
FINAL SINGLE POINT ENERGY      -344.350604238463
FINAL SINGLE POINT ENERGY      -344.350924492651
FINAL SINGLE POINT ENERGY      -344.356087574085
FINAL SINGLE POINT ENERGY      -344.356089799072
FINAL SINGLE POINT ENERGY      -344.356090399020
FINAL SINGLE POINT ENERGY      -344.356912548043
FINAL SINGLE POINT ENERGY      -344.356947111891
FINAL SINGLE POINT ENERGY      -344.356903599843
FINAL SINGLE POINT ENERGY      -344.356953211640
Dispersion correction            ... done
Dispersion correction           -0.009894052
FINAL SINGLE POINT ENERGY      -344.356979870275
Dispersion correction            ... done
Dispersion correction           -0.009892107
FINAL SINGLE POINT ENERGY      -344.356981339117
Dispersion correction            ... done
                    ***********************HURRAY********************

CARTESIAN COORDINATES (ANGSTROEM)
---------------------------------
  O     -2.230806   -0.412815    1.734491
  O     -0.539162   -0.280575    0.873574
  C     -0.736426    0.241500   -0.405587
  C      0.178437    0.913331    0.547199
  C      1.536551    0.410348    0.282499
  C      1.358361   -0.621736   -0.544864
  C      0.070735   -0.637094   -1.304959
  H     -2.231017    0.520638    2.001191
  H     -1.748340    0.594005   -0.625732
  H     -0.082385    1.814501    1.108943
  H      2.436946    0.663887    0.840443
  H      2.160110   -1.321758   -0.800911
  H      0.214105   -0.248008   -2.327315
  H     -0.387107   -1.636125   -1.378971

 Multiplicity           Mult            ....    2
 Number of Electrons    NEL             ....   53
 Basis Dimension        Dim             ....  133

ORBITAL ENERGIES
----------------
                 SPIN UP ORBITALS
  NO   OCC          E(Eh)            E(eV)
   0   1.0000     -19.245830      -523.7057
   1   1.0000     -19.183080      -521.9981
   2   1.0000     -10.301434      -280.3163
   3   1.0000     -10.297069      -280.1975
   4   1.0000     -10.250004      -278.9168
   5   1.0000     -10.247673      -278.8533
   6   1.0000     -10.242068      -278.7008
   7   1.0000      -1.146298       -31.1924
   8   1.0000      -0.949102       -25.8264
   9   1.0000      -0.850535       -23.1442
  10   1.0000      -0.759118       -20.6566
  11   1.0000      -0.690061       -18.7775
  12   1.0000      -0.609627       -16.5888
  13   1.0000      -0.577484       -15.7141
  14   1.0000      -0.574105       -15.6222
  15   1.0000      -0.490063       -13.3353
  16   1.0000      -0.477541       -12.9945
  17   1.0000      -0.449568       -12.2334
  18   1.0000      -0.419777       -11.4227
  19   1.0000      -0.415142       -11.2966
  20   1.0000      -0.405149       -11.0247
  21   1.0000      -0.386166       -10.5081
  22   1.0000      -0.366067        -9.9612
  23   1.0000      -0.327886        -8.9222
  24   1.0000      -0.288780        -7.8581
  25   1.0000      -0.270908        -7.3718
  26   1.0000      -0.230787        -6.2800
  27   0.0000      -0.011287        -0.3071
  28   0.0000       0.063794         1.7359
  29   0.0000       0.092969         2.5298
  30   0.0000       0.103301         2.8110
  31   0.0000       0.111472         3.0333

                 SPIN DOWN ORBITALS
  NO   OCC          E(Eh)            E(eV)
   0   1.0000     -19.238325      -523.5014
   1   1.0000     -19.158796      -521.3373
   2   1.0000     -10.301244      -280.3111
   3   1.0000     -10.297331      -280.2046
   4   1.0000     -10.249968      -278.9158
   5   1.0000     -10.247077      -278.8371
   6   1.0000     -10.242231      -278.7053
   7   1.0000      -1.136884       -30.9362
   8   1.0000      -0.890865       -24.2417
   9   1.0000      -0.844667       -22.9846
  10   1.0000      -0.758782       -20.6475
  11   1.0000      -0.685247       -18.6465
  12   1.0000      -0.608478       -16.5575
  13   1.0000      -0.575430       -15.6583
  14   1.0000      -0.567751       -15.4493
  15   1.0000      -0.479807       -13.0562
  16   1.0000      -0.475486       -12.9386
  17   1.0000      -0.442572       -12.0430
  18   1.0000      -0.417069       -11.3490
  19   1.0000      -0.411994       -11.2109
  20   1.0000      -0.390876       -10.6363
  21   1.0000      -0.377610       -10.2753
  22   1.0000      -0.339911        -9.2494
  23   1.0000      -0.308629        -8.3982
  24   1.0000      -0.263102        -7.1594
  25   1.0000      -0.247431        -6.7329
  26   0.0000      -0.035441        -0.9644
  27   0.0000      -0.006207        -0.1689
  28   0.0000       0.066547         1.8108
  29   0.0000       0.094412         2.5691
  30   0.0000       0.104148         2.8340

MULLIKEN ATOMIC CHARGES AND SPIN POPULATIONS
--------------------------------------------
   0 O :   -0.278544    0.838360
   1 O :   -0.261958    0.155015
   2 C :    0.025434   -0.011126
   3 C :    0.070917    0.006912
   4 C :    0.021609   -0.017195
   5 C :   -0.130618    0.038016
   6 C :    0.100079    0.000393
   7 H :    0.146239   -0.019390
   8 H :    0.049043    0.005530
   9 H :    0.042481    0.004597
  10 H :    0.038836    0.001029
  11 H :    0.036246   -0.002219
  12 H :    0.066899    0.000020
  13 H :    0.073336    0.000056
Sum of atomic charges         :   -0.0000000

LOEWDIN ATOMIC CHARGES AND SPIN POPULATIONS
-------------------------------------------
   0 O :   -0.194283    0.790680
   1 O :   -0.057323    0.175123
   2 C :    0.056690   -0.004768
   3 C :    0.049337    0.008223
   4 C :   -0.054713   -0.011153
   5 C :   -0.000300    0.029090
   6 C :   -0.045897    0.001370
   7 H :    0.033985    0.005201
   8 H :    0.024212    0.003107
   9 H :    0.025144    0.002714
  10 H :    0.036078    0.000372
  11 H :    0.028587   -0.000163
  12 H :    0.046064    0.000169
  13 H :    0.052418    0.000033

  Mayer bond orders larger than 0.100000
B(  0-O ,  1-O ) :   0.2162 B(  0-O ,  7-H ) :   1.0026 B(  1-O ,  2-C ) :   0.8989
B(  1-O ,  3-C ) :   0.8953 B(  2-C ,  3-C ) :   1.0120 B(  2-C ,  6-C ) :   1.0057
B(  2-C ,  8-H ) :   0.9621 B(  3-C ,  4-C ) :   0.9809 B(  3-C ,  9-H ) :   0.9772
B(  4-C ,  5-C ) :   1.8309 B(  4-C , 10-H ) :   0.9955 B(  5-C ,  6-C ) :   1.0244
B(  5-C , 11-H ) :   0.9674 B(  6-C , 12-H ) :   0.9257 B(  6-C , 13-H ) :   0.9204

Dispersion correction           -0.009891835
FINAL SINGLE POINT ENERGY      -344.356981513819

DIPOLE MOMENT
-------------
                                X             Y             Z
Electronic contribution:     -0.63748       0.12244       1.87482
Nuclear contribution   :      1.29957       0.82046      -2.62891
                        -----------------------------------------
Total Dipole Moment    :      0.66209       0.94290      -0.75409
                        -----------------------------------------
Magnitude (a.u.)       :      1.37698
Magnitude (Debye)      :      3.50000

Rotational constants in cm-1:     0.189948     0.073594     0.062910
Rotational constants in MHz :  5694.504142  2206.299184  1885.988253

                             ****ORCA TERMINATED NORMALLY****
TOTAL RUN TIME: 0 days 0 hours 7 minutes 57 seconds 145 msec
