                         Program Version 5.0.4 -  RELEASE  -
|  1> ! LooseOpt PBE0 RIJCOSX D3BJ def2-SVP def2/J
|  2> %geom Constraints
|  3> { B 1 5 2.238712546129391 C }
|  4> { B 0 1 2.8024081417945363 C }
|  5>     end
|  6> end
|  7> %geom MaxIter 50 end
|  8> %output
|  9> xyzfile=True
| 10> end
| 11> %scf
| 12> maxiter 250
| 13> end
| 14> %output
| 15> Print[P_Hirshfeld] = 1
| 16> end
| 17> % maxcore
| 18> 4000
| 19> %pal nprocs 8
| 20> end
| 21> *xyz 0 2
| 22> O   -2.47695658   0.65823382   1.81502012
| 23> O   -0.43751635  -0.39225328   0.81464772
| 24> C   -0.72360793   0.14622550  -0.44384081
| 25> C    0.15512112   0.86582548   0.51111327
| 26> C    1.54331849   0.46200581   0.22990183
| 27> C    1.38880946  -0.61276109  -0.54728604
| 28> C    0.12890310  -0.67263261  -1.35285749
| 29> H   -2.29695669  -0.13979954   2.34139562
| 30> H   -1.75992199   0.43561389  -0.63851748
| 31> H   -0.18350482   1.71800247   1.10345704
| 32> H    2.43402315   0.76766467   0.77647185
| 33> H    2.21848983  -1.28773423  -0.78669846
| 34> H    0.29056828  -0.25867030  -2.36249800
| 35> H   -0.28076909  -1.68962062  -1.46030919
| 36> *
| 37>
| 38>                          ****END OF INPUT****
 Total Charge           Charge          ....    0
 Multiplicity           Mult            ....    2
 Number of Electrons    NEL             ....   53
Dispersion correction           -0.009594420
FINAL SINGLE POINT ENERGY      -344.353623775233
Dispersion correction            ... done
Dispersion correction           -0.009572146
FINAL SINGLE POINT ENERGY      -344.356427047947
Dispersion correction            ... done
Dispersion correction           -0.009555726
FINAL SINGLE POINT ENERGY      -344.356993310605
Dispersion correction            ... done
FINAL SINGLE POINT ENERGY      -344.357122665235
FINAL SINGLE POINT ENERGY      -344.357221712005
FINAL SINGLE POINT ENERGY      -344.357416473185
FINAL SINGLE POINT ENERGY      -344.357756195106
FINAL SINGLE POINT ENERGY      -344.358237713715
FINAL SINGLE POINT ENERGY      -344.358853530963
FINAL SINGLE POINT ENERGY      -344.359370273425
FINAL SINGLE POINT ENERGY      -344.361387475967
FINAL SINGLE POINT ENERGY      -344.361965937939
FINAL SINGLE POINT ENERGY      -344.362048039624
FINAL SINGLE POINT ENERGY      -344.362207394861
FINAL SINGLE POINT ENERGY      -344.362255515650
FINAL SINGLE POINT ENERGY      -344.362285944081
FINAL SINGLE POINT ENERGY      -344.362316672783
Dispersion correction            ... done
Dispersion correction           -0.009702043
FINAL SINGLE POINT ENERGY      -344.362335062239
Dispersion correction            ... done
Dispersion correction           -0.009695845
FINAL SINGLE POINT ENERGY      -344.362347262571
Dispersion correction            ... done
                    ***********************HURRAY********************

CARTESIAN COORDINATES (ANGSTROEM)
---------------------------------
  O     -2.703734    0.599107    2.077422
  O     -0.413867   -0.423675    0.826854
  C     -0.735388    0.133376   -0.418280
  C      0.148957    0.855155    0.530497
  C      1.537520    0.467103    0.235831
  C      1.365391   -0.621410   -0.517383
  C      0.113336   -0.676814   -1.336019
  H     -1.941109    0.016316    1.838209
  H     -1.777583    0.419258   -0.593940
  H     -0.200563    1.699908    1.129247
  H      2.430604    0.776875    0.775378
  H      2.191493   -1.301359   -0.755598
  H      0.284003   -0.252446   -2.339484
  H     -0.299061   -1.691295   -1.452733

 Multiplicity           Mult            ....    2
 Number of Electrons    NEL             ....   53
 Basis Dimension        Dim             ....  133

ORBITAL ENERGIES
----------------
                 SPIN UP ORBITALS
  NO   OCC          E(Eh)            E(eV)
   0   1.0000     -19.238906      -523.5172
   1   1.0000     -19.236032      -523.4390
   2   1.0000     -10.301476      -280.3174
   3   1.0000     -10.300692      -280.2961
   4   1.0000     -10.252113      -278.9742
   5   1.0000     -10.247294      -278.8431
   6   1.0000     -10.238208      -278.5958
   7   1.0000      -1.142139       -31.0792
   8   1.0000      -0.987780       -26.8789
   9   1.0000      -0.848615       -23.0920
  10   1.0000      -0.762887       -20.7592
  11   1.0000      -0.689887       -18.7728
  12   1.0000      -0.607294       -16.5253
  13   1.0000      -0.576515       -15.6878
  14   1.0000      -0.571842       -15.5606
  15   1.0000      -0.483772       -13.1641
  16   1.0000      -0.480265       -13.0687
  17   1.0000      -0.454065       -12.3557
  18   1.0000      -0.440481       -11.9861
  19   1.0000      -0.415481       -11.3058
  20   1.0000      -0.409123       -11.1328
  21   1.0000      -0.397420       -10.8143
  22   1.0000      -0.380777       -10.3615
  23   1.0000      -0.340884        -9.2759
  24   1.0000      -0.319989        -8.7073
  25   1.0000      -0.316135        -8.6025
  26   1.0000      -0.249982        -6.8023
  27   0.0000      -0.012821        -0.3489
  28   0.0000       0.071699         1.9510
  29   0.0000       0.098528         2.6811
  30   0.0000       0.106176         2.8892
  31   0.0000       0.115600         3.1456

                 SPIN DOWN ORBITALS
  NO   OCC          E(Eh)            E(eV)
   0   1.0000     -19.236130      -523.4417
   1   1.0000     -19.212156      -522.7894
   2   1.0000     -10.301461      -280.3170
   3   1.0000     -10.300679      -280.2957
   4   1.0000     -10.252107      -278.9740
   5   1.0000     -10.247294      -278.8431
   6   1.0000     -10.238205      -278.5957
   7   1.0000      -1.142188       -31.0805
   8   1.0000      -0.910789       -24.7838
   9   1.0000      -0.848359       -23.0850
  10   1.0000      -0.762867       -20.7587
  11   1.0000      -0.689896       -18.7730
  12   1.0000      -0.607228       -16.5235
  13   1.0000      -0.576072       -15.6757
  14   1.0000      -0.571765       -15.5585
  15   1.0000      -0.482284       -13.1236
  16   1.0000      -0.480182       -13.0664
  17   1.0000      -0.448574       -12.2063
  18   1.0000      -0.424827       -11.5601
  19   1.0000      -0.412153       -11.2153
  20   1.0000      -0.407168       -11.0796
  21   1.0000      -0.380175       -10.3451
  22   1.0000      -0.340556        -9.2670
  23   1.0000      -0.315591        -8.5877
  24   1.0000      -0.292451        -7.9580
  25   1.0000      -0.249643        -6.7931
  26   0.0000      -0.109936        -2.9915
  27   0.0000      -0.012824        -0.3490
  28   0.0000       0.072649         1.9769
  29   0.0000       0.098910         2.6915
  30   0.0000       0.106764         2.9052

MULLIKEN ATOMIC CHARGES AND SPIN POPULATIONS
--------------------------------------------
   0 O :   -0.226436    1.025501
   1 O :   -0.350320   -0.001490
   2 C :   -0.011882    0.000173
   3 C :    0.080441    0.000686
   4 C :    0.016167    0.000011
   5 C :   -0.128188   -0.000042
   6 C :    0.112192    0.000239
   7 H :    0.197140   -0.025636
   8 H :    0.055387    0.000106
   9 H :    0.051951    0.000471
  10 H :    0.041066    0.000007
  11 H :    0.032420   -0.000032
  12 H :    0.067336    0.000013
  13 H :    0.062724   -0.000010
Sum of atomic charges         :    0.0000000

LOEWDIN ATOMIC CHARGES AND SPIN POPULATIONS
-------------------------------------------
   0 O :   -0.092409    0.997594
   1 O :   -0.153811   -0.002123
   2 C :    0.050101    0.000184
   3 C :    0.054887    0.000361
   4 C :   -0.062250    0.000011
   5 C :    0.002922    0.000062
   6 C :   -0.044695    0.000173
   7 H :    0.038017    0.003217
   8 H :    0.025189    0.000191
   9 H :    0.028667    0.000362
  10 H :    0.035767   -0.000003
  11 H :    0.025544   -0.000026
  12 H :    0.045605   -0.000004
  13 H :    0.046466   -0.000000

  Mayer bond orders larger than 0.100000
B(  0-O ,  7-H ) :   0.9319 B(  1-O ,  2-C ) :   0.9191 B(  1-O ,  3-C ) :   0.8908
B(  1-O ,  7-H ) :   0.1022 B(  2-C ,  3-C ) :   1.0025 B(  2-C ,  6-C ) :   0.9961
B(  2-C ,  8-H ) :   0.9720 B(  3-C ,  4-C ) :   0.9708 B(  3-C ,  9-H ) :   0.9833
B(  4-C ,  5-C ) :   1.8395 B(  4-C , 10-H ) :   0.9948 B(  5-C ,  6-C ) :   1.0228
B(  5-C , 11-H ) :   0.9659 B(  6-C , 12-H ) :   0.9243 B(  6-C , 13-H ) :   0.9247

Dispersion correction           -0.009693168
FINAL SINGLE POINT ENERGY      -344.362351662276

DIPOLE MOMENT
-------------
                                X             Y             Z
Electronic contribution:     -1.17454       0.56964       2.19892
Nuclear contribution   :      1.93042      -0.59992      -3.06494
                        -----------------------------------------
Total Dipole Moment    :      0.75589      -0.03027      -0.86602
                        -----------------------------------------
Magnitude (a.u.)       :      1.14990
Magnitude (Debye)      :      2.92282

Rotational constants in cm-1:     0.202739     0.059384     0.051491
Rotational constants in MHz :  6077.955725  1780.297409  1543.665161

                             ****ORCA TERMINATED NORMALLY****
TOTAL RUN TIME: 0 days 0 hours 15 minutes 45 seconds 869 msec
