                         Program Version 5.0.4 -  RELEASE  -
|  1> ! EnGrad PBE0 RIJCOSX D3BJ def2-SVP def2/J
|  2> %output
|  3> xyzfile=True
|  4> end
|  5> %scf
|  6> maxiter 250
|  7> end
|  8> %output
|  9> Print[P_Hirshfeld] = 1
| 10> end
| 11> % maxcore
| 12> 4000
| 13> *xyz 0 2
| 14> O   -2.23194936  -0.89446533   1.09448714
| 15> O   -0.70500362   0.04999842   0.98377157
| 16> C   -0.66413939   0.52785607  -0.31644492
| 17> C    0.47334684   1.35635140   0.19272770
| 18> C    1.59192290   0.49838037   0.22708127
| 19> C    1.22258174  -0.70105726  -0.33556634
| 20> C   -0.06166032  -0.61769035  -1.09215016
| 21> H   -2.23257191  -0.79713248   2.05951128
| 22> H   -1.58067369   1.01868540  -0.67196681
| 23> H    0.36381974   2.34312992   0.64305600
| 24> H    2.53786484   0.70163553   0.73033325
| 25> H    1.87177444  -1.58018965  -0.36281047
| 26> H    0.12032903  -0.40337106  -2.16071551
| 27> H   -0.70564919  -1.50203303  -0.99133196
| 28> *
| 29>
| 30>                          ****END OF INPUT****

CARTESIAN COORDINATES (ANGSTROEM)
---------------------------------
  O     -2.231949   -0.894465    1.094487
  O     -0.705004    0.049998    0.983772
  C     -0.664139    0.527856   -0.316445
  C      0.473347    1.356351    0.192728
  C      1.591923    0.498380    0.227081
  C      1.222582   -0.701057   -0.335566
  C     -0.061660   -0.617690   -1.092150
  H     -2.232572   -0.797132    2.059511
  H     -1.580674    1.018685   -0.671967
  H      0.363820    2.343130    0.643056
  H      2.537865    0.701636    0.730333
  H      1.871774   -1.580190   -0.362810
  H      0.120329   -0.403371   -2.160716
  H     -0.705649   -1.502033   -0.991332

 Total Charge           Charge          ....    0
 Multiplicity           Mult            ....    2
 Number of Electrons    NEL             ....   53
 Basis Dimension        Dim             ....  133

ORBITAL ENERGIES
----------------
                 SPIN UP ORBITALS
  NO   OCC          E(Eh)            E(eV)
   0   1.0000     -19.241406      -523.5853
   1   1.0000     -19.207683      -522.6676
   2   1.0000     -10.289533      -279.9924
   3   1.0000     -10.277651      -279.6691
   4   1.0000     -10.258067      -279.1362
   5   1.0000     -10.248058      -278.8638
   6   1.0000     -10.237017      -278.5634
   7   1.0000      -1.057748       -28.7828
   8   1.0000      -0.951847       -25.9011
   9   1.0000      -0.854686       -23.2572
  10   1.0000      -0.747499       -20.3405
  11   1.0000      -0.706141       -19.2151
  12   1.0000      -0.583417       -15.8756
  13   1.0000      -0.565652       -15.3922
  14   1.0000      -0.554549       -15.0901
  15   1.0000      -0.484269       -13.1776
  16   1.0000      -0.464089       -12.6285
  17   1.0000      -0.431311       -11.7366
  18   1.0000      -0.414771       -11.2865
  19   1.0000      -0.410183       -11.1617
  20   1.0000      -0.398895       -10.8545
  21   1.0000      -0.377861       -10.2821
  22   1.0000      -0.363447        -9.8899
  23   1.0000      -0.315820        -8.5939
  24   1.0000      -0.305948        -8.3253
  25   1.0000      -0.264496        -7.1973
  26   1.0000      -0.211065        -5.7434
  27   0.0000      -0.056250        -1.5306
  28   0.0000       0.037112         1.0099
  29   0.0000       0.077752         2.1157
  30   0.0000       0.104730         2.8498
  31   0.0000       0.117902         3.2083

                 SPIN DOWN ORBITALS
  NO   OCC          E(Eh)            E(eV)
   0   1.0000     -19.244602      -523.6722
   1   1.0000     -19.193036      -522.2691
   2   1.0000     -10.289994      -280.0050
   3   1.0000     -10.270989      -279.4878
   4   1.0000     -10.251830      -278.9665
   5   1.0000     -10.249564      -278.9048
   6   1.0000     -10.237556      -278.5781
   7   1.0000      -1.059227       -28.8230
   8   1.0000      -0.919770       -25.0282
   9   1.0000      -0.847554       -23.0631
  10   1.0000      -0.743869       -20.2417
  11   1.0000      -0.696852       -18.9623
  12   1.0000      -0.579251       -15.7622
  13   1.0000      -0.563247       -15.3267
  14   1.0000      -0.549280       -14.9467
  15   1.0000      -0.477545       -12.9947
  16   1.0000      -0.461350       -12.5540
  17   1.0000      -0.423254       -11.5173
  18   1.0000      -0.411419       -11.1953
  19   1.0000      -0.406550       -11.0628
  20   1.0000      -0.392777       -10.6880
  21   1.0000      -0.375035       -10.2052
  22   1.0000      -0.346785        -9.4365
  23   1.0000      -0.304326        -8.2811
  24   1.0000      -0.277815        -7.5597
  25   1.0000      -0.254054        -6.9132
  26   0.0000      -0.084451        -2.2980
  27   0.0000      -0.023787        -0.6473
  28   0.0000       0.056544         1.5386
  29   0.0000       0.079445         2.1618
  30   0.0000       0.108210         2.9445

MULLIKEN ATOMIC CHARGES AND SPIN POPULATIONS
--------------------------------------------
   0 O :   -0.274487    0.516154
   1 O :   -0.293694   -0.163682
   2 C :    0.038186   -0.037320
   3 C :    0.005845    0.471049
   4 C :    0.003067   -0.283684
   5 C :   -0.078628    0.565762
   6 C :    0.114264   -0.045513
   7 H :    0.174889   -0.011557
   8 H :    0.044553    0.003276
   9 H :    0.059271   -0.022377
  10 H :    0.037581    0.010313
  11 H :    0.038161   -0.027670
  12 H :    0.057621    0.020404
  13 H :    0.073371    0.004844
Sum of atomic charges         :    0.0000000

LOEWDIN ATOMIC CHARGES AND SPIN POPULATIONS
-------------------------------------------
   0 O :   -0.176405    0.478090
   1 O :   -0.108950   -0.127977
   2 C :    0.043247   -0.006765
   3 C :    0.035527    0.359410
   4 C :   -0.040666   -0.166175
   5 C :    0.030634    0.446809
   6 C :   -0.050847   -0.008890
   7 H :    0.056041    0.003522
   8 H :    0.022827    0.001887
   9 H :    0.036392   -0.000556
  10 H :    0.036522    0.000403
  11 H :    0.027740   -0.001069
  12 H :    0.039307    0.017066
  13 H :    0.048633    0.004243

  Mayer bond orders larger than 0.100000
B(  0-O ,  1-O ) :   0.5557 B(  0-O ,  7-H ) :   0.9818 B(  1-O ,  2-C ) :   0.9250
B(  1-O ,  3-C ) :   0.3261 B(  2-C ,  3-C ) :   0.9663 B(  2-C ,  6-C ) :   1.0055
B(  2-C ,  8-H ) :   0.9563 B(  3-C ,  4-C ) :   1.2449 B(  3-C ,  9-H ) :   0.9952
B(  4-C ,  5-C ) :   1.5194 B(  4-C , 10-H ) :   0.9937 B(  5-C ,  6-C ) :   0.9967
B(  5-C , 11-H ) :   0.9769 B(  6-C , 12-H ) :   0.9265 B(  6-C , 13-H ) :   0.9261

Dispersion correction           -0.010092416
FINAL SINGLE POINT ENERGY      -344.343102424446
Dispersion correction            ... done

DIPOLE MOMENT
-------------
                                X             Y             Z
Electronic contribution:     -0.68170       0.61411       1.59163
Nuclear contribution   :      1.36245      -0.15472      -1.78038
                        -----------------------------------------
Total Dipole Moment    :      0.68075       0.45939      -0.18875
                        -----------------------------------------
Magnitude (a.u.)       :      0.84267
Magnitude (Debye)      :      2.14189

Rotational constants in cm-1:     0.169739     0.076309     0.067215
Rotational constants in MHz :  5088.643224  2287.673559  2015.046463

                             ****ORCA TERMINATED NORMALLY****
TOTAL RUN TIME: 0 days 0 hours 1 minutes 22 seconds 411 msec
