                         Program Version 5.0.4 -  RELEASE  -
|  1> ! EnGrad PBE0 RIJCOSX D3BJ def2-SVP def2/J
|  2> %output
|  3> xyzfile=True
|  4> end
|  5> %scf
|  6> maxiter 250
|  7> end
|  8> %output
|  9> Print[P_Hirshfeld] = 1
| 10> end
| 11> % maxcore
| 12> 4000
| 13> *xyz 0 2
| 14> O   -2.19409809  -0.87468351   1.09800306
| 15> O   -0.82175245   0.06849440   1.04145536
| 16> C   -0.65480792   0.52343278  -0.30697299
| 17> C    0.47256222   1.34883557   0.19127655
| 18> C    1.58750696   0.49622848   0.22476499
| 19> C    1.30304837  -0.72834274  -0.38922965
| 20> C   -0.06202026  -0.61062012  -1.09882229
| 21> H   -2.23700524  -0.78950841   2.05630989
| 22> H   -1.58201502   1.01574093  -0.67030031
| 23> H    0.36120790   2.33887185   0.64506616
| 24> H    2.53701311   0.70155532   0.73082831
| 25> H    1.87366126  -1.57901166  -0.36475397
| 26> H    0.12051176  -0.40683236  -2.16377681
| 27> H   -0.70370635  -1.50388566  -0.99455190
| 28> *
| 29>
| 30>                          ****END OF INPUT****

CARTESIAN COORDINATES (ANGSTROEM)
---------------------------------
  O     -2.194098   -0.874684    1.098003
  O     -0.821752    0.068494    1.041455
  C     -0.654808    0.523433   -0.306973
  C      0.472562    1.348836    0.191277
  C      1.587507    0.496228    0.224765
  C      1.303048   -0.728343   -0.389230
  C     -0.062020   -0.610620   -1.098822
  H     -2.237005   -0.789508    2.056310
  H     -1.582015    1.015741   -0.670300
  H      0.361208    2.338872    0.645066
  H      2.537013    0.701555    0.730828
  H      1.873661   -1.579012   -0.364754
  H      0.120512   -0.406832   -2.163777
  H     -0.703706   -1.503886   -0.994552

 Total Charge           Charge          ....    0
 Multiplicity           Mult            ....    2
 Number of Electrons    NEL             ....   53
 Basis Dimension        Dim             ....  133

ORBITAL ENERGIES
----------------
                 SPIN UP ORBITALS
  NO   OCC          E(Eh)            E(eV)
   0   1.0000     -19.255744      -523.9754
   1   1.0000     -19.227785      -523.2146
   2   1.0000     -10.290716      -280.0246
   3   1.0000     -10.260359      -279.1986
   4   1.0000     -10.250563      -278.9320
   5   1.0000     -10.246148      -278.8119
   6   1.0000     -10.239664      -278.6354
   7   1.0000      -1.062811       -28.9206
   8   1.0000      -0.953106       -25.9353
   9   1.0000      -0.850396       -23.1404
  10   1.0000      -0.737909       -20.0795
  11   1.0000      -0.710489       -19.3334
  12   1.0000      -0.584858       -15.9148
  13   1.0000      -0.564092       -15.3497
  14   1.0000      -0.546492       -14.8708
  15   1.0000      -0.488121       -13.2825
  16   1.0000      -0.475703       -12.9445
  17   1.0000      -0.439819       -11.9681
  18   1.0000      -0.415626       -11.3098
  19   1.0000      -0.407317       -11.0837
  20   1.0000      -0.392861       -10.6903
  21   1.0000      -0.370258       -10.0752
  22   1.0000      -0.359157        -9.7732
  23   1.0000      -0.332483        -9.0473
  24   1.0000      -0.313468        -8.5299
  25   1.0000      -0.264344        -7.1932
  26   1.0000      -0.207589        -5.6488
  27   0.0000      -0.036217        -0.9855
  28   0.0000       0.039938         1.0868
  29   0.0000       0.081404         2.2151
  30   0.0000       0.101164         2.7528
  31   0.0000       0.116967         3.1828

                 SPIN DOWN ORBITALS
  NO   OCC          E(Eh)            E(eV)
   0   1.0000     -19.256705      -524.0016
   1   1.0000     -19.221289      -523.0379
   2   1.0000     -10.291145      -280.0363
   3   1.0000     -10.251759      -278.9645
   4   1.0000     -10.250299      -278.9248
   5   1.0000     -10.240551      -278.6595
   6   1.0000     -10.240236      -278.6510
   7   1.0000      -1.058867       -28.8132
   8   1.0000      -0.940989       -25.6056
   9   1.0000      -0.842335       -22.9211
  10   1.0000      -0.733130       -19.9495
  11   1.0000      -0.696682       -18.9577
  12   1.0000      -0.578382       -15.7386
  13   1.0000      -0.558147       -15.1880
  14   1.0000      -0.542534       -14.7631
  15   1.0000      -0.481342       -13.0980
  16   1.0000      -0.471247       -12.8233
  17   1.0000      -0.433782       -11.8038
  18   1.0000      -0.410861       -11.1801
  19   1.0000      -0.404629       -11.0105
  20   1.0000      -0.388191       -10.5632
  21   1.0000      -0.366309        -9.9678
  22   1.0000      -0.348124        -9.4729
  23   1.0000      -0.328894        -8.9497
  24   1.0000      -0.290645        -7.9088
  25   1.0000      -0.258895        -7.0449
  26   0.0000      -0.082629        -2.2485
  27   0.0000      -0.012311        -0.3350
  28   0.0000       0.064303         1.7498
  29   0.0000       0.083546         2.2734
  30   0.0000       0.104304         2.8383

MULLIKEN ATOMIC CHARGES AND SPIN POPULATIONS
--------------------------------------------
   0 O :   -0.234396    0.224152
   1 O :   -0.287789   -0.073034
   2 C :    0.052603   -0.040375
   3 C :   -0.021309    0.598207
   4 C :    0.002287   -0.318617
   5 C :   -0.054958    0.687925
   6 C :    0.079638   -0.053648
   7 H :    0.181409   -0.004349
   8 H :    0.051030    0.003205
   9 H :    0.053740   -0.029036
  10 H :    0.035451    0.011478
  11 H :    0.006343   -0.031740
  12 H :    0.063861    0.020947
  13 H :    0.072090    0.004886
Sum of atomic charges         :   -0.0000000

LOEWDIN ATOMIC CHARGES AND SPIN POPULATIONS
-------------------------------------------
   0 O :   -0.137647    0.204268
   1 O :   -0.106097   -0.047855
   2 C :    0.054008   -0.001752
   3 C :   -0.007434    0.461221
   4 C :   -0.034325   -0.180594
   5 C :    0.027702    0.545386
   6 C :   -0.048282   -0.010475
   7 H :    0.060449    0.002483
   8 H :    0.026053    0.002077
   9 H :    0.034582   -0.001312
  10 H :    0.034237    0.000785
  11 H :    0.009517    0.004012
  12 H :    0.041201    0.017434
  13 H :    0.046037    0.004323

  Mayer bond orders larger than 0.100000
B(  0-O ,  1-O ) :   0.7898 B(  0-O ,  7-H ) :   0.9791 B(  1-O ,  2-C ) :   0.8989
B(  1-O ,  3-C ) :   0.1354 B(  2-C ,  3-C ) :   0.9872 B(  2-C ,  6-C ) :   1.0184
B(  2-C ,  8-H ) :   0.9499 B(  3-C ,  4-C ) :   1.3303 B(  3-C ,  9-H ) :   0.9945
B(  4-C ,  5-C ) :   1.4283 B(  4-C , 10-H ) :   0.9909 B(  5-C ,  6-C ) :   0.9833
B(  5-C , 11-H ) :   0.9961 B(  6-C , 12-H ) :   0.9323 B(  6-C , 13-H ) :   0.9302

Dispersion correction           -0.010102606
FINAL SINGLE POINT ENERGY      -344.356510623013
Dispersion correction            ... done

DIPOLE MOMENT
-------------
                                X             Y             Z
Electronic contribution:     -0.94879       0.43655       1.71973
Nuclear contribution   :      1.37341      -0.17079      -1.80729
                        -----------------------------------------
Total Dipole Moment    :      0.42462       0.26576      -0.08757
                        -----------------------------------------
Magnitude (a.u.)       :      0.50852
Magnitude (Debye)      :      1.29257

Rotational constants in cm-1:     0.167310     0.075454     0.066063
Rotational constants in MHz :  5015.839471  2262.052457  1980.519014

                             ****ORCA TERMINATED NORMALLY****
TOTAL RUN TIME: 0 days 0 hours 1 minutes 17 seconds 818 msec
