                         Program Version 5.0.4 -  RELEASE  -
|  1> ! EnGrad PBE0 RIJCOSX D3BJ def2-SVP def2/J
|  2> %output
|  3> xyzfile=True
|  4> end
|  5> %scf
|  6> maxiter 250
|  7> end
|  8> %output
|  9> Print[P_Hirshfeld] = 1
| 10> end
| 11> % maxcore
| 12> 4000
| 13> *xyz 0 2
| 14> O   -2.18493721  -0.86797676   1.09768265
| 15> O   -0.83489733   0.06048530   1.03853331
| 16> C   -0.65940888   0.52324083  -0.30020498
| 17> C    0.47786097   1.34996276   0.18933124
| 18> C    1.58855225   0.49378690   0.22424998
| 19> C    1.28824565  -0.70913133  -0.39240179
| 20> C   -0.05551414  -0.61553093  -1.09504386
| 21> H   -2.23900075  -0.78544410   2.05850752
| 22> H   -1.57994860   1.01391023  -0.67031773
| 23> H    0.36047287   2.33650188   0.64580607
| 24> H    2.53600794   0.70213292   0.73096420
| 25> H    1.88516670  -1.59238962  -0.36642999
| 26> H    0.11941628  -0.40546128  -2.16530365
| 27> H   -0.70187590  -1.50379994  -0.99605470
| 28> *
| 29>
| 30>                          ****END OF INPUT****

CARTESIAN COORDINATES (ANGSTROEM)
---------------------------------
  O     -2.184937   -0.867977    1.097683
  O     -0.834897    0.060485    1.038533
  C     -0.659409    0.523241   -0.300205
  C      0.477861    1.349963    0.189331
  C      1.588552    0.493787    0.224250
  C      1.288246   -0.709131   -0.392402
  C     -0.055514   -0.615531   -1.095044
  H     -2.239001   -0.785444    2.058508
  H     -1.579949    1.013910   -0.670318
  H      0.360473    2.336502    0.645806
  H      2.536008    0.702133    0.730964
  H      1.885167   -1.592390   -0.366430
  H      0.119416   -0.405461   -2.165304
  H     -0.701876   -1.503800   -0.996055

 Total Charge           Charge          ....    0
 Multiplicity           Mult            ....    2
 Number of Electrons    NEL             ....   53
 Basis Dimension        Dim             ....  133

ORBITAL ENERGIES
----------------
                 SPIN UP ORBITALS
  NO   OCC          E(Eh)            E(eV)
   0   1.0000     -19.256930      -524.0077
   1   1.0000     -19.231543      -523.3169
   2   1.0000     -10.290236      -280.0116
   3   1.0000     -10.257057      -279.1087
   4   1.0000     -10.249753      -278.9100
   5   1.0000     -10.243193      -278.7314
   6   1.0000     -10.238504      -278.6039
   7   1.0000      -1.069644       -29.1065
   8   1.0000      -0.953589       -25.9485
   9   1.0000      -0.852817       -23.2063
  10   1.0000      -0.737772       -20.0758
  11   1.0000      -0.708100       -19.2684
  12   1.0000      -0.582374       -15.8472
  13   1.0000      -0.561585       -15.2815
  14   1.0000      -0.545546       -14.8451
  15   1.0000      -0.490551       -13.3486
  16   1.0000      -0.479915       -13.0592
  17   1.0000      -0.440002       -11.9731
  18   1.0000      -0.411466       -11.1965
  19   1.0000      -0.406237       -11.0543
  20   1.0000      -0.396303       -10.7839
  21   1.0000      -0.371177       -10.1002
  22   1.0000      -0.359347        -9.7783
  23   1.0000      -0.335011        -9.1161
  24   1.0000      -0.314294        -8.5524
  25   1.0000      -0.263898        -7.1810
  26   1.0000      -0.205129        -5.5818
  27   0.0000      -0.029224        -0.7952
  28   0.0000       0.041722         1.1353
  29   0.0000       0.080664         2.1950
  30   0.0000       0.099359         2.7037
  31   0.0000       0.116399         3.1674

                 SPIN DOWN ORBITALS
  NO   OCC          E(Eh)            E(eV)
   0   1.0000     -19.257324      -524.0184
   1   1.0000     -19.226303      -523.1743
   2   1.0000     -10.290662      -280.0231
   3   1.0000     -10.248020      -278.8628
   4   1.0000     -10.247214      -278.8409
   5   1.0000     -10.239901      -278.6419
   6   1.0000     -10.239080      -278.6195
   7   1.0000      -1.065437       -28.9920
   8   1.0000      -0.943554       -25.6754
   9   1.0000      -0.844463       -22.9790
  10   1.0000      -0.732697       -19.9377
  11   1.0000      -0.694322       -18.8935
  12   1.0000      -0.575684       -15.6652
  13   1.0000      -0.556706       -15.1487
  14   1.0000      -0.539752       -14.6874
  15   1.0000      -0.483290       -13.1510
  16   1.0000      -0.476130       -12.9562
  17   1.0000      -0.433831       -11.8051
  18   1.0000      -0.407663       -11.0931
  19   1.0000      -0.402567       -10.9544
  20   1.0000      -0.391764       -10.6604
  21   1.0000      -0.367368        -9.9966
  22   1.0000      -0.348872        -9.4933
  23   1.0000      -0.331606        -9.0235
  24   1.0000      -0.292137        -7.9495
  25   1.0000      -0.258856        -7.0438
  26   0.0000      -0.079709        -2.1690
  27   0.0000      -0.007851        -0.2136
  28   0.0000       0.066550         1.8109
  29   0.0000       0.083189         2.2637
  30   0.0000       0.102395         2.7863

MULLIKEN ATOMIC CHARGES AND SPIN POPULATIONS
--------------------------------------------
   0 O :   -0.227308    0.179387
   1 O :   -0.283973   -0.051214
   2 C :    0.047916   -0.041888
   3 C :   -0.023516    0.629076
   4 C :    0.004796   -0.313054
   5 C :   -0.079604    0.674754
   6 C :    0.083301   -0.053188
   7 H :    0.184111   -0.003437
   8 H :    0.047799    0.003209
   9 H :    0.051146   -0.030499
  10 H :    0.033786    0.011281
  11 H :    0.027264   -0.032858
  12 H :    0.064178    0.023145
  13 H :    0.070105    0.005287
Sum of atomic charges         :   -0.0000000

LOEWDIN ATOMIC CHARGES AND SPIN POPULATIONS
-------------------------------------------
   0 O :   -0.131746    0.163044
   1 O :   -0.101525   -0.028737
   2 C :    0.053992   -0.001024
   3 C :   -0.011033    0.487582
   4 C :   -0.037065   -0.173974
   5 C :    0.014149    0.534615
   6 C :   -0.050848   -0.009359
   7 H :    0.064206    0.002070
   8 H :    0.023892    0.002126
   9 H :    0.032482   -0.001157
  10 H :    0.034878    0.000800
  11 H :    0.020875    0.000255
  12 H :    0.042527    0.019085
  13 H :    0.045216    0.004674

  Mayer bond orders larger than 0.100000
B(  0-O ,  1-O ) :   0.8169 B(  0-O ,  7-H ) :   0.9775 B(  1-O ,  2-C ) :   0.9004
B(  1-O ,  3-C ) :   0.1103 B(  2-C ,  3-C ) :   0.9886 B(  2-C ,  6-C ) :   1.0147
B(  2-C ,  8-H ) :   0.9506 B(  3-C ,  4-C ) :   1.3244 B(  3-C ,  9-H ) :   0.9938
B(  4-C ,  5-C ) :   1.4436 B(  4-C , 10-H ) :   0.9924 B(  5-C ,  6-C ) :   0.9893
B(  5-C , 11-H ) :   0.9856 B(  6-C , 12-H ) :   0.9298 B(  6-C , 13-H ) :   0.9302

Dispersion correction           -0.010082967
FINAL SINGLE POINT ENERGY      -344.363482966745
Dispersion correction            ... done

DIPOLE MOMENT
-------------
                                X             Y             Z
Electronic contribution:     -1.02959       0.43162       1.75667
Nuclear contribution   :      1.39204      -0.18965      -1.80925
                        -----------------------------------------
Total Dipole Moment    :      0.36245       0.24196      -0.05258
                        -----------------------------------------
Magnitude (a.u.)       :      0.43895
Magnitude (Debye)      :      1.11573

Rotational constants in cm-1:     0.168702     0.075742     0.066276
Rotational constants in MHz :  5057.570991  2270.693785  1986.907701

                             ****ORCA TERMINATED NORMALLY****
TOTAL RUN TIME: 0 days 0 hours 1 minutes 12 seconds 541 msec
