                         Program Version 5.0.4 -  RELEASE  -
|  1> ! EnGrad PBE0 RIJCOSX D3BJ def2-SVP def2/J
|  2> %output
|  3> xyzfile=True
|  4> end
|  5> %scf
|  6> maxiter 250
|  7> end
|  8> %output
|  9> Print[P_Hirshfeld] = 1
| 10> end
| 11> % maxcore
| 12> 4000
| 13> *xyz 0 2
| 14> O   -2.23081000  -0.41282000   1.73449000
| 15> O   -0.53916000  -0.28058000   0.87357000
| 16> C   -0.73643000   0.24150000  -0.40559000
| 17> C    0.17844000   0.91333000   0.54720000
| 18> C    1.53655000   0.41035000   0.28250000
| 19> C    1.35836000  -0.62174000  -0.54486000
| 20> C    0.07074000  -0.63709000  -1.30496000
| 21> H   -2.23102000   0.52064000   2.00119000
| 22> H   -1.74834000   0.59400000  -0.62573000
| 23> H   -0.08238000   1.81450000   1.10894000
| 24> H    2.43695000   0.66389000   0.84044000
| 25> H    2.16011000  -1.32176000  -0.80091000
| 26> H    0.21410000  -0.24801000  -2.32732000
| 27> H   -0.38711000  -1.63612000  -1.37897000
| 28> *
| 29>
| 30>                          ****END OF INPUT****

CARTESIAN COORDINATES (ANGSTROEM)
---------------------------------
  O     -2.230810   -0.412820    1.734490
  O     -0.539160   -0.280580    0.873570
  C     -0.736430    0.241500   -0.405590
  C      0.178440    0.913330    0.547200
  C      1.536550    0.410350    0.282500
  C      1.358360   -0.621740   -0.544860
  C      0.070740   -0.637090   -1.304960
  H     -2.231020    0.520640    2.001190
  H     -1.748340    0.594000   -0.625730
  H     -0.082380    1.814500    1.108940
  H      2.436950    0.663890    0.840440
  H      2.160110   -1.321760   -0.800910
  H      0.214100   -0.248010   -2.327320
  H     -0.387110   -1.636120   -1.378970

 Total Charge           Charge          ....    0
 Multiplicity           Mult            ....    2
 Number of Electrons    NEL             ....   53
 Basis Dimension        Dim             ....  133

ORBITAL ENERGIES
----------------
                 SPIN UP ORBITALS
  NO   OCC          E(Eh)            E(eV)
   0   1.0000     -19.245825      -523.7055
   1   1.0000     -19.183080      -521.9982
   2   1.0000     -10.301435      -280.3163
   3   1.0000     -10.297071      -280.1975
   4   1.0000     -10.250005      -278.9168
   5   1.0000     -10.247674      -278.8534
   6   1.0000     -10.242069      -278.7009
   7   1.0000      -1.146295       -31.1923
   8   1.0000      -0.949100       -25.8263
   9   1.0000      -0.850536       -23.1443
  10   1.0000      -0.759118       -20.6567
  11   1.0000      -0.690061       -18.7775
  12   1.0000      -0.609627       -16.5888
  13   1.0000      -0.577484       -15.7141
  14   1.0000      -0.574105       -15.6222
  15   1.0000      -0.490061       -13.3352
  16   1.0000      -0.477541       -12.9946
  17   1.0000      -0.449568       -12.2334
  18   1.0000      -0.419776       -11.4227
  19   1.0000      -0.415142       -11.2966
  20   1.0000      -0.405149       -11.0247
  21   1.0000      -0.386166       -10.5081
  22   1.0000      -0.366068        -9.9612
  23   1.0000      -0.327885        -8.9222
  24   1.0000      -0.288780        -7.8581
  25   1.0000      -0.270908        -7.3718
  26   1.0000      -0.230786        -6.2800
  27   0.0000      -0.011289        -0.3072
  28   0.0000       0.063794         1.7359
  29   0.0000       0.092969         2.5298
  30   0.0000       0.103300         2.8109
  31   0.0000       0.111472         3.0333

                 SPIN DOWN ORBITALS
  NO   OCC          E(Eh)            E(eV)
   0   1.0000     -19.238320      -523.5013
   1   1.0000     -19.158796      -521.3373
   2   1.0000     -10.301245      -280.3111
   3   1.0000     -10.297332      -280.2046
   4   1.0000     -10.249969      -278.9158
   5   1.0000     -10.247078      -278.8372
   6   1.0000     -10.242234      -278.7054
   7   1.0000      -1.136882       -30.9361
   8   1.0000      -0.890864       -24.2416
   9   1.0000      -0.844667       -22.9846
  10   1.0000      -0.758783       -20.6475
  11   1.0000      -0.685246       -18.6465
  12   1.0000      -0.608478       -16.5575
  13   1.0000      -0.575430       -15.6583
  14   1.0000      -0.567751       -15.4493
  15   1.0000      -0.479806       -13.0562
  16   1.0000      -0.475486       -12.9386
  17   1.0000      -0.442572       -12.0430
  18   1.0000      -0.417068       -11.3490
  19   1.0000      -0.411995       -11.2110
  20   1.0000      -0.390876       -10.6363
  21   1.0000      -0.377610       -10.2753
  22   1.0000      -0.339910        -9.2494
  23   1.0000      -0.308628        -8.3982
  24   1.0000      -0.263101        -7.1593
  25   1.0000      -0.247431        -6.7330
  26   0.0000      -0.035441        -0.9644
  27   0.0000      -0.006209        -0.1689
  28   0.0000       0.066547         1.8108
  29   0.0000       0.094412         2.5691
  30   0.0000       0.104147         2.8340

MULLIKEN ATOMIC CHARGES AND SPIN POPULATIONS
--------------------------------------------
   0 O :   -0.278544    0.838362
   1 O :   -0.261951    0.155008
   2 C :    0.025432   -0.011121
   3 C :    0.070915    0.006917
   4 C :    0.021604   -0.017224
   5 C :   -0.130616    0.038046
   6 C :    0.100075    0.000386
   7 H :    0.146241   -0.019389
   8 H :    0.049042    0.005530
   9 H :    0.042480    0.004597
  10 H :    0.038838    0.001031
  11 H :    0.036247   -0.002221
  12 H :    0.066900    0.000022
  13 H :    0.073336    0.000057
Sum of atomic charges         :    0.0000000

LOEWDIN ATOMIC CHARGES AND SPIN POPULATIONS
-------------------------------------------
   0 O :   -0.194285    0.790683
   1 O :   -0.057318    0.175116
   2 C :    0.056689   -0.004765
   3 C :    0.049335    0.008225
   4 C :   -0.054716   -0.011172
   5 C :   -0.000300    0.029110
   6 C :   -0.045899    0.001368
   7 H :    0.033988    0.005201
   8 H :    0.024211    0.003107
   9 H :    0.025144    0.002714
  10 H :    0.036079    0.000373
  11 H :    0.028588   -0.000163
  12 H :    0.046063    0.000170
  13 H :    0.052419    0.000034

  Mayer bond orders larger than 0.100000
B(  0-O ,  1-O ) :   0.2162 B(  0-O ,  7-H ) :   1.0026 B(  1-O ,  2-C ) :   0.8989
B(  1-O ,  3-C ) :   0.8953 B(  2-C ,  3-C ) :   1.0120 B(  2-C ,  6-C ) :   1.0057
B(  2-C ,  8-H ) :   0.9621 B(  3-C ,  4-C ) :   0.9809 B(  3-C ,  9-H ) :   0.9772
B(  4-C ,  5-C ) :   1.8309 B(  4-C , 10-H ) :   0.9955 B(  5-C ,  6-C ) :   1.0245
B(  5-C , 11-H ) :   0.9674 B(  6-C , 12-H ) :   0.9257 B(  6-C , 13-H ) :   0.9204

Dispersion correction           -0.009891832
FINAL SINGLE POINT ENERGY      -344.356981359022
Dispersion correction            ... done

DIPOLE MOMENT
-------------
                                X             Y             Z
Electronic contribution:     -0.63749       0.12242       1.87484
Nuclear contribution   :      1.29957       0.82047      -2.62891
                        -----------------------------------------
Total Dipole Moment    :      0.66208       0.94289      -0.75407
                        -----------------------------------------
Magnitude (a.u.)       :      1.37696
Magnitude (Debye)      :      3.49995

Rotational constants in cm-1:     0.189948     0.073594     0.062910
Rotational constants in MHz :  5694.493961  2206.296673  1885.987056

                             ****ORCA TERMINATED NORMALLY****
TOTAL RUN TIME: 0 days 0 hours 1 minutes 4 seconds 770 msec
