                         Program Version 5.0.4 -  RELEASE  -
|  1> ! EnGrad PBE0 RIJCOSX D3BJ def2-SVP def2/J
|  2> %output
|  3> xyzfile=True
|  4> end
|  5> %scf
|  6> maxiter 250
|  7> end
|  8> %output
|  9> Print[P_Hirshfeld] = 1
| 10> end
| 11> % maxcore
| 12> 4000
| 13> *xyz 0 2
| 14> O   -2.33825337  -0.42657023   1.77710415
| 15> O   -0.54654223  -0.24692465   0.90614012
| 16> C   -0.73637686   0.24085912  -0.40588576
| 17> C    0.18147527   0.91822906   0.54407499
| 18> C    1.53744732   0.41142164   0.28152275
| 19> C    1.46869884  -0.64230333  -0.62672132
| 20> C    0.07007568  -0.63705473  -1.30312677
| 21> H   -2.23112232   0.50938047   2.00815321
| 22> H   -1.74651745   0.59826396  -0.62638920
| 23> H   -0.07830445   1.82027717   1.10491688
| 24> H    2.43801999   0.66419940   0.83961268
| 25> H    2.15793785  -1.32473724  -0.79735617
| 26> H    0.21334503  -0.24956049  -2.32624833
| 27> H   -0.38983815  -1.63528590  -1.37558419
| 28> *
| 29>
| 30>                          ****END OF INPUT****

CARTESIAN COORDINATES (ANGSTROEM)
---------------------------------
  O     -2.338253   -0.426570    1.777104
  O     -0.546542   -0.246925    0.906140
  C     -0.736377    0.240859   -0.405886
  C      0.181475    0.918229    0.544075
  C      1.537447    0.411422    0.281523
  C      1.468699   -0.642303   -0.626721
  C      0.070076   -0.637055   -1.303127
  H     -2.231122    0.509380    2.008153
  H     -1.746517    0.598264   -0.626389
  H     -0.078304    1.820277    1.104917
  H      2.438020    0.664199    0.839613
  H      2.157938   -1.324737   -0.797356
  H      0.213345   -0.249560   -2.326248
  H     -0.389838   -1.635286   -1.375584

 Total Charge           Charge          ....    0
 Multiplicity           Mult            ....    2
 Number of Electrons    NEL             ....   53
 Basis Dimension        Dim             ....  133

ORBITAL ENERGIES
----------------
                 SPIN UP ORBITALS
  NO   OCC          E(Eh)            E(eV)
   0   1.0000     -19.241757      -523.5948
   1   1.0000     -19.196813      -522.3718
   2   1.0000     -10.302001      -280.3317
   3   1.0000     -10.298800      -280.2446
   4   1.0000     -10.251961      -278.9700
   5   1.0000     -10.249807      -278.9114
   6   1.0000     -10.249041      -278.8906
   7   1.0000      -1.136600       -30.9285
   8   1.0000      -0.957406       -26.0523
   9   1.0000      -0.837873       -22.7997
  10   1.0000      -0.751445       -20.4479
  11   1.0000      -0.691395       -18.8138
  12   1.0000      -0.608270       -16.5519
  13   1.0000      -0.590618       -16.0715
  14   1.0000      -0.567066       -15.4307
  15   1.0000      -0.483328       -13.1520
  16   1.0000      -0.472835       -12.8665
  17   1.0000      -0.448258       -12.1977
  18   1.0000      -0.429156       -11.6779
  19   1.0000      -0.417325       -11.3560
  20   1.0000      -0.412334       -11.2202
  21   1.0000      -0.376668       -10.2497
  22   1.0000      -0.369197       -10.0464
  23   1.0000      -0.325170        -8.8483
  24   1.0000      -0.290208        -7.8970
  25   1.0000      -0.281048        -7.6477
  26   1.0000      -0.244145        -6.6435
  27   0.0000      -0.017850        -0.4857
  28   0.0000       0.063486         1.7275
  29   0.0000       0.094888         2.5820
  30   0.0000       0.103140         2.8066
  31   0.0000       0.111402         3.0314

                 SPIN DOWN ORBITALS
  NO   OCC          E(Eh)            E(eV)
   0   1.0000     -19.236065      -523.4399
   1   1.0000     -19.171820      -521.6917
   2   1.0000     -10.301751      -280.3249
   3   1.0000     -10.299020      -280.2506
   4   1.0000     -10.251957      -278.9699
   5   1.0000     -10.250119      -278.9199
   6   1.0000     -10.248337      -278.8714
   7   1.0000      -1.129460       -30.7342
   8   1.0000      -0.893955       -24.3258
   9   1.0000      -0.834355       -22.7040
  10   1.0000      -0.751330       -20.4447
  11   1.0000      -0.687386       -18.7047
  12   1.0000      -0.607317       -16.5259
  13   1.0000      -0.589483       -16.0406
  14   1.0000      -0.561694       -15.2845
  15   1.0000      -0.474648       -12.9158
  16   1.0000      -0.471099       -12.8193
  17   1.0000      -0.442668       -12.0456
  18   1.0000      -0.424250       -11.5444
  19   1.0000      -0.415390       -11.3033
  20   1.0000      -0.393114       -10.6972
  21   1.0000      -0.374876       -10.2009
  22   1.0000      -0.338504        -9.2112
  23   1.0000      -0.304196        -8.2776
  24   1.0000      -0.260711        -7.0943
  25   1.0000      -0.255580        -6.9547
  26   0.0000      -0.054744        -1.4897
  27   0.0000      -0.012352        -0.3361
  28   0.0000       0.066359         1.8057
  29   0.0000       0.095950         2.6109
  30   0.0000       0.104255         2.8369

MULLIKEN ATOMIC CHARGES AND SPIN POPULATIONS
--------------------------------------------
   0 O :   -0.254269    0.882343
   1 O :   -0.283601    0.113718
   2 C :    0.030039   -0.010153
   3 C :    0.069964    0.010653
   4 C :    0.019732   -0.031331
   5 C :   -0.070852    0.051861
   6 C :    0.068835   -0.001673
   7 H :    0.153715   -0.021811
   8 H :    0.055134    0.003377
   9 H :    0.044457    0.003071
  10 H :    0.038667    0.001644
  11 H :   -0.014078   -0.002317
  12 H :    0.067381    0.000273
  13 H :    0.074877    0.000346
Sum of atomic charges         :   -0.0000000

LOEWDIN ATOMIC CHARGES AND SPIN POPULATIONS
-------------------------------------------
   0 O :   -0.166303    0.838774
   1 O :   -0.085397    0.130230
   2 C :    0.060684   -0.005020
   3 C :    0.041918    0.009288
   4 C :   -0.045743   -0.021567
   5 C :    0.022146    0.039544
   6 C :   -0.044202    0.000402
   7 H :    0.037677    0.003043
   8 H :    0.027377    0.001806
   9 H :    0.025044    0.001906
  10 H :    0.031897    0.000326
  11 H :    0.001142    0.000623
  12 H :    0.044184    0.000420
  13 H :    0.049575    0.000225

  Mayer bond orders larger than 0.100000
B(  0-O ,  1-O ) :   0.1769 B(  0-O ,  7-H ) :   0.9985 B(  1-O ,  2-C ) :   0.9107
B(  1-O ,  3-C ) :   0.8971 B(  2-C ,  3-C ) :   1.0142 B(  2-C ,  6-C ) :   1.0103
B(  2-C ,  8-H ) :   0.9605 B(  3-C ,  4-C ) :   0.9887 B(  3-C ,  9-H ) :   0.9726
B(  4-C ,  5-C ) :   1.8143 B(  4-C , 10-H ) :   0.9946 B(  5-C ,  6-C ) :   1.0084
B(  5-C , 11-H ) :   0.9981 B(  6-C , 12-H ) :   0.9306 B(  6-C , 13-H ) :   0.9279

Dispersion correction           -0.009836815
FINAL SINGLE POINT ENERGY      -344.358706513371
Dispersion correction            ... done

DIPOLE MOMENT
-------------
                                X             Y             Z
Electronic contribution:     -0.70078       0.10290       1.92919
Nuclear contribution   :      1.33034       0.80771      -2.63212
                        -----------------------------------------
Total Dipole Moment    :      0.62956       0.91061      -0.70294
                        -----------------------------------------
Magnitude (a.u.)       :      1.31136
Magnitude (Debye)      :      3.33322

Rotational constants in cm-1:     0.188971     0.068819     0.059329
Rotational constants in MHz :  5665.222109  2063.151090  1778.650000

                             ****ORCA TERMINATED NORMALLY****
TOTAL RUN TIME: 0 days 0 hours 1 minutes 6 seconds 290 msec
