                         Program Version 5.0.4 -  RELEASE  -
|  1> ! EnGrad PBE0 RIJCOSX D3BJ def2-SVP def2/J
|  2> %output
|  3> xyzfile=True
|  4> end
|  5> %scf
|  6> maxiter 250
|  7> end
|  8> %output
|  9> Print[P_Hirshfeld] = 1
| 10> end
| 11> % maxcore
| 12> 4000
| 13> *xyz 0 2
| 14> O   -2.34417650  -0.42583708   1.77962345
| 15> O   -0.54966510  -0.24676955   0.90669063
| 16> C   -0.73331206   0.23940719  -0.40238585
| 17> C    0.18207742   0.91641842   0.54323598
| 18> C    1.54254375   0.39881313   0.27008963
| 19> C    1.43798871  -0.60572619  -0.61311873
| 20> C    0.07851558  -0.63953600  -1.30425887
| 21> H   -2.23126975   0.51017355   2.00916455
| 22> H   -1.74640822   0.59781503  -0.62683027
| 23> H   -0.07788207   1.82046919   1.10457663
| 24> H    2.43776038   0.66497119   0.84052910
| 25> H    2.18126019  -1.34506665  -0.80433042
| 26> H    0.21174369  -0.24927969  -2.32672327
| 27> H   -0.38913923  -1.63563428  -1.37601747
| 28> *
| 29>
| 30>                          ****END OF INPUT****

CARTESIAN COORDINATES (ANGSTROEM)
---------------------------------
  O     -2.344177   -0.425837    1.779623
  O     -0.549665   -0.246770    0.906691
  C     -0.733312    0.239407   -0.402386
  C      0.182077    0.916418    0.543236
  C      1.542544    0.398813    0.270090
  C      1.437989   -0.605726   -0.613119
  C      0.078516   -0.639536   -1.304259
  H     -2.231270    0.510174    2.009165
  H     -1.746408    0.597815   -0.626830
  H     -0.077882    1.820469    1.104577
  H      2.437760    0.664971    0.840529
  H      2.181260   -1.345067   -0.804330
  H      0.211744   -0.249280   -2.326723
  H     -0.389139   -1.635634   -1.376017

 Total Charge           Charge          ....    0
 Multiplicity           Mult            ....    2
 Number of Electrons    NEL             ....   53
 Basis Dimension        Dim             ....  133

ORBITAL ENERGIES
----------------
                 SPIN UP ORBITALS
  NO   OCC          E(Eh)            E(eV)
   0   1.0000     -19.240959      -523.5731
   1   1.0000     -19.197060      -522.3786
   2   1.0000     -10.300898      -280.3017
   3   1.0000     -10.297687      -280.2143
   4   1.0000     -10.250772      -278.9377
   5   1.0000     -10.248089      -278.8647
   6   1.0000     -10.244506      -278.7672
   7   1.0000      -1.137488       -30.9526
   8   1.0000      -0.957503       -26.0550
   9   1.0000      -0.845828       -23.0162
  10   1.0000      -0.752494       -20.4764
  11   1.0000      -0.687874       -18.7180
  12   1.0000      -0.608875       -16.5683
  13   1.0000      -0.579991       -15.7824
  14   1.0000      -0.567809       -15.4509
  15   1.0000      -0.485110       -13.2005
  16   1.0000      -0.471376       -12.8268
  17   1.0000      -0.444957       -12.1079
  18   1.0000      -0.426714       -11.6115
  19   1.0000      -0.416419       -11.3313
  20   1.0000      -0.411642       -11.2013
  21   1.0000      -0.380371       -10.3504
  22   1.0000      -0.368912       -10.0386
  23   1.0000      -0.324388        -8.8270
  24   1.0000      -0.292634        -7.9630
  25   1.0000      -0.281190        -7.6516
  26   1.0000      -0.247677        -6.7396
  27   0.0000      -0.008597        -0.2339
  28   0.0000       0.062275         1.6946
  29   0.0000       0.093492         2.5441
  30   0.0000       0.105802         2.8790
  31   0.0000       0.109343         2.9754

                 SPIN DOWN ORBITALS
  NO   OCC          E(Eh)            E(eV)
   0   1.0000     -19.235283      -523.4187
   1   1.0000     -19.172008      -521.6968
   2   1.0000     -10.300661      -280.2952
   3   1.0000     -10.297898      -280.2201
   4   1.0000     -10.250756      -278.9372
   5   1.0000     -10.247548      -278.8500
   6   1.0000     -10.244688      -278.7721
   7   1.0000      -1.130406       -30.7599
   8   1.0000      -0.894065       -24.3287
   9   1.0000      -0.842169       -22.9166
  10   1.0000      -0.752275       -20.4704
  11   1.0000      -0.683881       -18.6093
  12   1.0000      -0.607971       -16.5437
  13   1.0000      -0.578685       -15.7468
  14   1.0000      -0.562742       -15.3130
  15   1.0000      -0.476211       -12.9584
  16   1.0000      -0.469880       -12.7861
  17   1.0000      -0.438634       -11.9358
  18   1.0000      -0.422605       -11.4997
  19   1.0000      -0.412119       -11.2143
  20   1.0000      -0.395306       -10.7568
  21   1.0000      -0.377739       -10.2788
  22   1.0000      -0.338765        -9.2183
  23   1.0000      -0.302443        -8.2299
  24   1.0000      -0.265816        -7.2332
  25   1.0000      -0.256534        -6.9806
  26   0.0000      -0.053995        -1.4693
  27   0.0000      -0.004354        -0.1185
  28   0.0000       0.064941         1.7671
  29   0.0000       0.094777         2.5790
  30   0.0000       0.106719         2.9040

MULLIKEN ATOMIC CHARGES AND SPIN POPULATIONS
--------------------------------------------
   0 O :   -0.253274    0.885018
   1 O :   -0.285102    0.113171
   2 C :    0.022551   -0.009626
   3 C :    0.062938    0.009812
   4 C :    0.029210   -0.018776
   5 C :   -0.121265    0.036949
   6 C :    0.081159   -0.000508
   7 H :    0.154332   -0.021965
   8 H :    0.054417    0.003566
   9 H :    0.043829    0.003003
  10 H :    0.038469    0.001055
  11 H :    0.031168   -0.001854
  12 H :    0.066634    0.000003
  13 H :    0.074933    0.000152
Sum of atomic charges         :    0.0000000

LOEWDIN ATOMIC CHARGES AND SPIN POPULATIONS
-------------------------------------------
   0 O :   -0.165224    0.841564
   1 O :   -0.086090    0.129671
   2 C :    0.058438   -0.004563
   3 C :    0.044047    0.009239
   4 C :   -0.051474   -0.012196
   5 C :    0.000585    0.028200
   6 C :   -0.045620    0.000745
   7 H :    0.038113    0.002914
   8 H :    0.026656    0.001965
   9 H :    0.024460    0.001868
  10 H :    0.034832    0.000292
  11 H :    0.025627    0.000044
  12 H :    0.044972    0.000176
  13 H :    0.050680    0.000080

  Mayer bond orders larger than 0.100000
B(  0-O ,  1-O ) :   0.1748 B(  0-O ,  7-H ) :   0.9981 B(  1-O ,  2-C ) :   0.9135
B(  1-O ,  3-C ) :   0.8982 B(  2-C ,  3-C ) :   1.0170 B(  2-C ,  6-C ) :   1.0074
B(  2-C ,  8-H ) :   0.9594 B(  3-C ,  4-C ) :   0.9805 B(  3-C ,  9-H ) :   0.9724
B(  4-C ,  5-C ) :   1.8293 B(  4-C , 10-H ) :   0.9949 B(  5-C ,  6-C ) :   1.0157
B(  5-C , 11-H ) :   0.9778 B(  6-C , 12-H ) :   0.9291 B(  6-C , 13-H ) :   0.9262

Dispersion correction           -0.009827110
FINAL SINGLE POINT ENERGY      -344.371818830278
Dispersion correction            ... done

DIPOLE MOMENT
-------------
                                X             Y             Z
Electronic contribution:     -0.73137       0.13600       1.93914
Nuclear contribution   :      1.37027       0.77558      -2.64417
                        -----------------------------------------
Total Dipole Moment    :      0.63890       0.91158      -0.70503
                        -----------------------------------------
Magnitude (a.u.)       :      1.31766
Magnitude (Debye)      :      3.34924

Rotational constants in cm-1:     0.191098     0.069012     0.059467
Rotational constants in MHz :  5728.981520  2068.931122  1782.767987

                             ****ORCA TERMINATED NORMALLY****
TOTAL RUN TIME: 0 days 0 hours 1 minutes 17 seconds 316 msec
