                         Program Version 5.0.4 -  RELEASE  -
|  1> ! EnGrad PBE0 RIJCOSX D3BJ def2-SVP def2/J
|  2> %output
|  3> xyzfile=True
|  4> end
|  5> %scf
|  6> maxiter 250
|  7> end
|  8> %output
|  9> Print[P_Hirshfeld] = 1
| 10> end
| 11> % maxcore
| 12> 4000
| 13> *xyz 0 2
| 14> O   -2.42528390  -0.07258783   1.55314575
| 15> O   -0.54974407  -0.29661647   0.84220104
| 16> C   -0.73399678   0.21093803  -0.44708512
| 17> C    0.14836870   0.90314227   0.52579001
| 18> C    1.52045212   0.43540096   0.27340250
| 19> C    1.37063038  -0.61940425  -0.52959952
| 20> C    0.10381931  -0.65955663  -1.32218749
| 21> H   -2.08611042   0.26482477   2.39733574
| 22> H   -1.73373715   0.57895059  -0.69318464
| 23> H   -0.15133938   1.79389111   1.08254940
| 24> H    2.41407186   0.71797439   0.82810415
| 25> H    2.18835300  -1.30850152  -0.76597689
| 26> H    0.27083515  -0.28189955  -2.34530605
| 27> H   -0.33631883  -1.66645963  -1.39919263
| 28> *
| 29>
| 30>                          ****END OF INPUT****

CARTESIAN COORDINATES (ANGSTROEM)
---------------------------------
  O     -2.425284   -0.072588    1.553146
  O     -0.549744   -0.296616    0.842201
  C     -0.733997    0.210938   -0.447085
  C      0.148369    0.903142    0.525790
  C      1.520452    0.435401    0.273402
  C      1.370630   -0.619404   -0.529600
  C      0.103819   -0.659557   -1.322187
  H     -2.086110    0.264825    2.397336
  H     -1.733737    0.578951   -0.693185
  H     -0.151339    1.793891    1.082549
  H      2.414072    0.717974    0.828104
  H      2.188353   -1.308502   -0.765977
  H      0.270835   -0.281900   -2.345306
  H     -0.336319   -1.666460   -1.399193

 Total Charge           Charge          ....    0
 Multiplicity           Mult            ....    2
 Number of Electrons    NEL             ....   53
 Basis Dimension        Dim             ....  133

ORBITAL ENERGIES
----------------
                 SPIN UP ORBITALS
  NO   OCC          E(Eh)            E(eV)
   0   1.0000     -19.242439      -523.6134
   1   1.0000     -19.194287      -522.3031
   2   1.0000     -10.295911      -280.1660
   3   1.0000     -10.291386      -280.0428
   4   1.0000     -10.247065      -278.8368
   5   1.0000     -10.245259      -278.7877
   6   1.0000     -10.239357      -278.6271
   7   1.0000      -1.141640       -31.0656
   8   1.0000      -0.954479       -25.9727
   9   1.0000      -0.848654       -23.0931
  10   1.0000      -0.756012       -20.5721
  11   1.0000      -0.684393       -18.6233
  12   1.0000      -0.605699       -16.4819
  13   1.0000      -0.573569       -15.6076
  14   1.0000      -0.568902       -15.4806
  15   1.0000      -0.482242       -13.1225
  16   1.0000      -0.474023       -12.8988
  17   1.0000      -0.446507       -12.1501
  18   1.0000      -0.426448       -11.6042
  19   1.0000      -0.413590       -11.2544
  20   1.0000      -0.400116       -10.8877
  21   1.0000      -0.386135       -10.5073
  22   1.0000      -0.361212        -9.8291
  23   1.0000      -0.329522        -8.9668
  24   1.0000      -0.291324        -7.9273
  25   1.0000      -0.279989        -7.6189
  26   1.0000      -0.241611        -6.5746
  27   0.0000      -0.009878        -0.2688
  28   0.0000       0.072554         1.9743
  29   0.0000       0.097025         2.6402
  30   0.0000       0.107131         2.9152
  31   0.0000       0.113702         3.0940

                 SPIN DOWN ORBITALS
  NO   OCC          E(Eh)            E(eV)
   0   1.0000     -19.235704      -523.4301
   1   1.0000     -19.169803      -521.6369
   2   1.0000     -10.295961      -280.1673
   3   1.0000     -10.291584      -280.0482
   4   1.0000     -10.247030      -278.8359
   5   1.0000     -10.244917      -278.7784
   6   1.0000     -10.239315      -278.6259
   7   1.0000      -1.133009       -30.8308
   8   1.0000      -0.892601       -24.2889
   9   1.0000      -0.844449       -22.9786
  10   1.0000      -0.755675       -20.5630
  11   1.0000      -0.680733       -18.5237
  12   1.0000      -0.604692       -16.4545
  13   1.0000      -0.571468       -15.5504
  14   1.0000      -0.563792       -15.3416
  15   1.0000      -0.474835       -12.9209
  16   1.0000      -0.472678       -12.8622
  17   1.0000      -0.438790       -11.9401
  18   1.0000      -0.418570       -11.3899
  19   1.0000      -0.409716       -11.1489
  20   1.0000      -0.384646       -10.4668
  21   1.0000      -0.382460       -10.4073
  22   1.0000      -0.334918        -9.1136
  23   1.0000      -0.304943        -8.2979
  24   1.0000      -0.258260        -7.0276
  25   1.0000      -0.256889        -6.9903
  26   0.0000      -0.051624        -1.4048
  27   0.0000      -0.007928        -0.2157
  28   0.0000       0.074582         2.0295
  29   0.0000       0.099086         2.6963
  30   0.0000       0.107945         2.9373

MULLIKEN ATOMIC CHARGES AND SPIN POPULATIONS
--------------------------------------------
   0 O :   -0.275981    0.863077
   1 O :   -0.277302    0.148889
   2 C :    0.026015   -0.010145
   3 C :    0.065765   -0.003837
   4 C :    0.021023   -0.002660
   5 C :   -0.134872    0.020538
   6 C :    0.107104    0.000360
   7 H :    0.158321   -0.021664
   8 H :    0.062657    0.002332
   9 H :    0.041110    0.004013
  10 H :    0.036137    0.000324
  11 H :    0.034060   -0.001208
  12 H :    0.066698   -0.000072
  13 H :    0.069266    0.000051
Sum of atomic charges         :    0.0000000

LOEWDIN ATOMIC CHARGES AND SPIN POPULATIONS
-------------------------------------------
   0 O :   -0.179312    0.818583
   1 O :   -0.075987    0.163159
   2 C :    0.058364   -0.004599
   3 C :    0.048734   -0.000552
   4 C :   -0.057401   -0.000868
   5 C :   -0.002315    0.015516
   6 C :   -0.046929    0.000998
   7 H :    0.042967    0.004237
   8 H :    0.027945    0.001245
   9 H :    0.025531    0.002148
  10 H :    0.034484    0.000336
  11 H :    0.026987   -0.000114
  12 H :    0.046284   -0.000062
  13 H :    0.050648   -0.000028

  Mayer bond orders larger than 0.100000
B(  0-O ,  1-O ) :   0.2078 B(  0-O ,  7-H ) :   0.9943 B(  1-O ,  2-C ) :   0.9060
B(  1-O ,  3-C ) :   0.9030 B(  2-C ,  3-C ) :   1.0178 B(  2-C ,  6-C ) :   0.9988
B(  2-C ,  8-H ) :   0.9610 B(  3-C ,  4-C ) :   0.9731 B(  3-C ,  9-H ) :   0.9777
B(  4-C ,  5-C ) :   1.8294 B(  4-C , 10-H ) :   0.9955 B(  5-C ,  6-C ) :   1.0223
B(  5-C , 11-H ) :   0.9665 B(  6-C , 12-H ) :   0.9258 B(  6-C , 13-H ) :   0.9205

Dispersion correction           -0.009832711
FINAL SINGLE POINT ENERGY      -344.367282614602
Dispersion correction            ... done

DIPOLE MOMENT
-------------
                                X             Y             Z
Electronic contribution:     -0.89332       0.27965       1.76859
Nuclear contribution   :      1.69083       0.25748      -2.09667
                        -----------------------------------------
Total Dipole Moment    :      0.79751       0.53713      -0.32808
                        -----------------------------------------
Magnitude (a.u.)       :      1.01595
Magnitude (Debye)      :      2.58235

Rotational constants in cm-1:     0.197394     0.072329     0.061096
Rotational constants in MHz :  5917.732766  2168.370340  1831.609672

                             ****ORCA TERMINATED NORMALLY****
TOTAL RUN TIME: 0 days 0 hours 1 minutes 11 seconds 130 msec
