                         Program Version 5.0.4 -  RELEASE  -
|  1> ! EnGrad PBE0 RIJCOSX D3BJ def2-SVP def2/J
|  2> %output
|  3> xyzfile=True
|  4> end
|  5> %scf
|  6> maxiter 250
|  7> end
|  8> %output
|  9> Print[P_Hirshfeld] = 1
| 10> end
| 11> % maxcore
| 12> 4000
| 13> *xyz 0 2
| 14> O   -2.48352404  -0.07051073   1.57737444
| 15> O   -0.60394364  -0.28927771   0.90056139
| 16> C   -0.73810718   0.22011157  -0.44734342
| 17> C    0.14437374   0.90647127   0.52004912
| 18> C    1.52357626   0.43186003   0.28176209
| 19> C    1.48895922  -0.63951913  -0.61924157
| 20> C    0.10464083  -0.66358064  -1.31740856
| 21> H   -2.08441639   0.26984206   2.39055239
| 22> H   -1.73556576   0.57481942  -0.68753682
| 23> H   -0.15019192   1.79666296   1.08044980
| 24> H    2.41406593   0.71729336   0.82988659
| 25> H    2.18853309  -1.30794580  -0.76560367
| 26> H    0.26907605  -0.28003677  -2.34386840
| 27> H   -0.33751841  -1.66595318  -1.39886659
| 28> *
| 29>
| 30>                          ****END OF INPUT****

CARTESIAN COORDINATES (ANGSTROEM)
---------------------------------
  O     -2.483524   -0.070511    1.577374
  O     -0.603944   -0.289278    0.900561
  C     -0.738107    0.220112   -0.447343
  C      0.144374    0.906471    0.520049
  C      1.523576    0.431860    0.281762
  C      1.488959   -0.639519   -0.619242
  C      0.104641   -0.663581   -1.317409
  H     -2.084416    0.269842    2.390552
  H     -1.735566    0.574819   -0.687537
  H     -0.150192    1.796663    1.080450
  H      2.414066    0.717293    0.829887
  H      2.188533   -1.307946   -0.765604
  H      0.269076   -0.280037   -2.343868
  H     -0.337518   -1.665953   -1.398867

 Total Charge           Charge          ....    0
 Multiplicity           Mult            ....    2
 Number of Electrons    NEL             ....   53
 Basis Dimension        Dim             ....  133

ORBITAL ENERGIES
----------------
                 SPIN UP ORBITALS
  NO   OCC          E(Eh)            E(eV)
   0   1.0000     -19.241653      -523.5920
   1   1.0000     -19.192806      -522.2628
   2   1.0000     -10.300803      -280.2991
   3   1.0000     -10.296076      -280.1705
   4   1.0000     -10.252922      -278.9962
   5   1.0000     -10.251691      -278.9627
   6   1.0000     -10.250883      -278.9407
   7   1.0000      -1.112867       -30.2827
   8   1.0000      -0.953032       -25.9333
   9   1.0000      -0.838026       -22.8039
  10   1.0000      -0.746726       -20.3194
  11   1.0000      -0.694285       -18.8924
  12   1.0000      -0.603767       -16.4293
  13   1.0000      -0.587585       -15.9890
  14   1.0000      -0.562541       -15.3075
  15   1.0000      -0.481087       -13.0910
  16   1.0000      -0.466500       -12.6941
  17   1.0000      -0.442202       -12.0329
  18   1.0000      -0.425268       -11.5721
  19   1.0000      -0.420262       -11.4359
  20   1.0000      -0.403393       -10.9769
  21   1.0000      -0.376849       -10.2546
  22   1.0000      -0.367375        -9.9968
  23   1.0000      -0.333142        -9.0653
  24   1.0000      -0.286230        -7.7887
  25   1.0000      -0.277391        -7.5482
  26   1.0000      -0.243397        -6.6232
  27   0.0000      -0.022513        -0.6126
  28   0.0000       0.074702         2.0327
  29   0.0000       0.095429         2.5968
  30   0.0000       0.102142         2.7794
  31   0.0000       0.112335         3.0568

                 SPIN DOWN ORBITALS
  NO   OCC          E(Eh)            E(eV)
   0   1.0000     -19.235106      -523.4138
   1   1.0000     -19.168224      -521.5939
   2   1.0000     -10.300757      -280.2978
   3   1.0000     -10.296297      -280.1765
   4   1.0000     -10.252918      -278.9961
   5   1.0000     -10.251882      -278.9679
   6   1.0000     -10.250303      -278.9249
   7   1.0000      -1.104119       -30.0446
   8   1.0000      -0.891002       -24.2454
   9   1.0000      -0.834170       -22.6989
  10   1.0000      -0.746658       -20.3176
  11   1.0000      -0.690436       -18.7877
  12   1.0000      -0.602769       -16.4022
  13   1.0000      -0.586627       -15.9629
  14   1.0000      -0.557886       -15.1809
  15   1.0000      -0.473208       -12.8766
  16   1.0000      -0.464800       -12.6479
  17   1.0000      -0.434522       -11.8239
  18   1.0000      -0.420284       -11.4365
  19   1.0000      -0.416993       -11.3470
  20   1.0000      -0.386267       -10.5109
  21   1.0000      -0.375043       -10.2054
  22   1.0000      -0.339836        -9.2474
  23   1.0000      -0.302988        -8.2447
  24   1.0000      -0.259491        -7.0611
  25   1.0000      -0.255281        -6.9465
  26   0.0000      -0.051628        -1.4049
  27   0.0000      -0.017583        -0.4784
  28   0.0000       0.077085         2.0976
  29   0.0000       0.097242         2.6461
  30   0.0000       0.103162         2.8072

MULLIKEN ATOMIC CHARGES AND SPIN POPULATIONS
--------------------------------------------
   0 O :   -0.274399    0.865651
   1 O :   -0.306417    0.143342
   2 C :    0.041805   -0.011834
   3 C :    0.068601    0.002176
   4 C :    0.023334   -0.022826
   5 C :   -0.066334    0.041233
   6 C :    0.075137   -0.001654
   7 H :    0.159450   -0.021358
   8 H :    0.068390    0.002223
   9 H :    0.048710    0.002998
  10 H :    0.035262    0.001301
  11 H :   -0.017599   -0.001836
  12 H :    0.070076    0.000217
  13 H :    0.073983    0.000366
Sum of atomic charges         :    0.0000000

LOEWDIN ATOMIC CHARGES AND SPIN POPULATIONS
-------------------------------------------
   0 O :   -0.178980    0.822141
   1 O :   -0.113308    0.158231
   2 C :    0.076409   -0.006359
   3 C :    0.056767    0.001934
   4 C :   -0.047151   -0.015262
   5 C :    0.026472    0.031170
   6 C :   -0.044324    0.000294
   7 H :    0.040887    0.003864
   8 H :    0.031313    0.001055
   9 H :    0.028388    0.001606
  10 H :    0.030065    0.000361
  11 H :   -0.001183    0.000512
  12 H :    0.046228    0.000254
  13 H :    0.048416    0.000199

  Mayer bond orders larger than 0.100000
B(  0-O ,  1-O ) :   0.2091 B(  0-O ,  7-H ) :   0.9942 B(  1-O ,  2-C ) :   0.8958
B(  1-O ,  3-C ) :   0.8829 B(  2-C ,  3-C ) :   1.0198 B(  2-C ,  6-C ) :   1.0031
B(  2-C ,  8-H ) :   0.9604 B(  3-C ,  4-C ) :   0.9833 B(  3-C ,  9-H ) :   0.9732
B(  4-C ,  5-C ) :   1.8078 B(  4-C , 10-H ) :   0.9967 B(  5-C ,  6-C ) :   1.0063
B(  5-C , 11-H ) :   0.9990 B(  6-C , 12-H ) :   0.9290 B(  6-C , 13-H ) :   0.9292

Dispersion correction           -0.009802029
FINAL SINGLE POINT ENERGY      -344.362877804636
Dispersion correction            ... done

DIPOLE MOMENT
-------------
                                X             Y             Z
Electronic contribution:     -0.83047       0.26727       1.72106
Nuclear contribution   :      1.71609       0.26487      -2.11684
                        -----------------------------------------
Total Dipole Moment    :      0.88562       0.53214      -0.39578
                        -----------------------------------------
Magnitude (a.u.)       :      1.10641
Magnitude (Debye)      :      2.81227

Rotational constants in cm-1:     0.196305     0.068338     0.058258
Rotational constants in MHz :  5885.066664  2048.719069  1746.516880

                             ****ORCA TERMINATED NORMALLY****
TOTAL RUN TIME: 0 days 0 hours 1 minutes 7 seconds 818 msec
