                         Program Version 5.0.4 -  RELEASE  -
|  1> ! EnGrad PBE0 RIJCOSX D3BJ def2-SVP def2/J
|  2> %output
|  3> xyzfile=True
|  4> end
|  5> %scf
|  6> maxiter 250
|  7> end
|  8> %output
|  9> Print[P_Hirshfeld] = 1
| 10> end
| 11> % maxcore
| 12> 4000
| 13> *xyz 0 2
| 14> O   -2.48974166  -0.06949062   1.57901344
| 15> O   -0.60144371  -0.28400218   0.89455256
| 16> C   -0.73340276   0.21567667  -0.44030539
| 17> C    0.14369100   0.90134138   0.52078717
| 18> C    1.52572384   0.41703943   0.26941235
| 19> C    1.45513853  -0.60036402  -0.60430530
| 20> C    0.11247697  -0.66431856  -1.31798963
| 21> H   -2.08452325   0.26993555   2.39115406
| 22> H   -1.73673696   0.57529006  -0.68827374
| 23> H   -0.14944758   1.79739401   1.07966944
| 24> H    2.41464351   0.71825383   0.83165064
| 25> H    2.21399446  -1.32987266  -0.77219528
| 26> H    0.26710097  -0.28007440  -2.34350210
| 27> H   -0.33748538  -1.66658233  -1.39887941
| 28> *
| 29>
| 30>                          ****END OF INPUT****

CARTESIAN COORDINATES (ANGSTROEM)
---------------------------------
  O     -2.489742   -0.069491    1.579013
  O     -0.601444   -0.284002    0.894553
  C     -0.733403    0.215677   -0.440305
  C      0.143691    0.901341    0.520787
  C      1.525724    0.417039    0.269412
  C      1.455139   -0.600364   -0.604305
  C      0.112477   -0.664319   -1.317990
  H     -2.084523    0.269936    2.391154
  H     -1.736737    0.575290   -0.688274
  H     -0.149448    1.797394    1.079669
  H      2.414644    0.718254    0.831651
  H      2.213994   -1.329873   -0.772195
  H      0.267101   -0.280074   -2.343502
  H     -0.337485   -1.666582   -1.398879

 Total Charge           Charge          ....    0
 Multiplicity           Mult            ....    2
 Number of Electrons    NEL             ....   53
 Basis Dimension        Dim             ....  133

ORBITAL ENERGIES
----------------
                 SPIN UP ORBITALS
  NO   OCC          E(Eh)            E(eV)
   0   1.0000     -19.241078      -523.5764
   1   1.0000     -19.194903      -522.3199
   2   1.0000     -10.298705      -280.2420
   3   1.0000     -10.294130      -280.1175
   4   1.0000     -10.250726      -278.9364
   5   1.0000     -10.248843      -278.8852
   6   1.0000     -10.245268      -278.7879
   7   1.0000      -1.120910       -30.5015
   8   1.0000      -0.954591       -25.9757
   9   1.0000      -0.846419       -23.0322
  10   1.0000      -0.748252       -20.3610
  11   1.0000      -0.689265       -18.7559
  12   1.0000      -0.603995       -16.4355
  13   1.0000      -0.576396       -15.6845
  14   1.0000      -0.563751       -15.3404
  15   1.0000      -0.482519       -13.1300
  16   1.0000      -0.466291       -12.6884
  17   1.0000      -0.440367       -11.9830
  18   1.0000      -0.422257       -11.4902
  19   1.0000      -0.421564       -11.4713
  20   1.0000      -0.402509       -10.9528
  21   1.0000      -0.380190       -10.3455
  22   1.0000      -0.366651        -9.9771
  23   1.0000      -0.331746        -9.0273
  24   1.0000      -0.289372        -7.8742
  25   1.0000      -0.279345        -7.6014
  26   1.0000      -0.247879        -6.7451
  27   0.0000      -0.011151        -0.3034
  28   0.0000       0.072061         1.9609
  29   0.0000       0.096242         2.6189
  30   0.0000       0.106609         2.9010
  31   0.0000       0.109824         2.9885

                 SPIN DOWN ORBITALS
  NO   OCC          E(Eh)            E(eV)
   0   1.0000     -19.234712      -523.4031
   1   1.0000     -19.170194      -521.6475
   2   1.0000     -10.298678      -280.2413
   3   1.0000     -10.294335      -280.1231
   4   1.0000     -10.250710      -278.9360
   5   1.0000     -10.248425      -278.8738
   6   1.0000     -10.245329      -278.7896
   7   1.0000      -1.112533       -30.2736
   8   1.0000      -0.892130       -24.2761
   9   1.0000      -0.842538       -22.9266
  10   1.0000      -0.748067       -20.3559
  11   1.0000      -0.685470       -18.6526
  12   1.0000      -0.603100       -16.4112
  13   1.0000      -0.575203       -15.6521
  14   1.0000      -0.559059       -15.2128
  15   1.0000      -0.474541       -12.9129
  16   1.0000      -0.464897       -12.6505
  17   1.0000      -0.431539       -11.7428
  18   1.0000      -0.420732       -11.4487
  19   1.0000      -0.413656       -11.2562
  20   1.0000      -0.387099       -10.5335
  21   1.0000      -0.378461       -10.2985
  22   1.0000      -0.339405        -9.2357
  23   1.0000      -0.301339        -8.1999
  24   1.0000      -0.265560        -7.2263
  25   1.0000      -0.256688        -6.9848
  26   0.0000      -0.052713        -1.4344
  27   0.0000      -0.007834        -0.2132
  28   0.0000       0.074153         2.0178
  29   0.0000       0.098221         2.6727
  30   0.0000       0.107736         2.9316

MULLIKEN ATOMIC CHARGES AND SPIN POPULATIONS
--------------------------------------------
   0 O :   -0.270860    0.872290
   1 O :   -0.302611    0.138419
   2 C :    0.031288   -0.010902
   3 C :    0.060740    0.000936
   4 C :    0.030010   -0.011293
   5 C :   -0.121772    0.027727
   6 C :    0.086124   -0.000543
   7 H :    0.160734   -0.021780
   8 H :    0.068931    0.002504
   9 H :    0.047489    0.003147
  10 H :    0.036458    0.000768
  11 H :    0.031328   -0.001433
  12 H :    0.068707   -0.000023
  13 H :    0.073436    0.000185
Sum of atomic charges         :   -0.0000000

LOEWDIN ATOMIC CHARGES AND SPIN POPULATIONS
-------------------------------------------
   0 O :   -0.175225    0.828894
   1 O :   -0.106485    0.153135
   2 C :    0.068860   -0.005502
   3 C :    0.054743    0.001702
   4 C :   -0.054073   -0.006662
   5 C :    0.001623    0.020843
   6 C :   -0.046312    0.000625
   7 H :    0.042320    0.003546
   8 H :    0.031330    0.001283
   9 H :    0.027668    0.001702
  10 H :    0.034041    0.000339
  11 H :    0.025313   -0.000012
  12 H :    0.046613    0.000042
  13 H :    0.049585    0.000066

  Mayer bond orders larger than 0.100000
B(  0-O ,  1-O ) :   0.2018 B(  0-O ,  7-H ) :   0.9934 B(  1-O ,  2-C ) :   0.9025
B(  1-O ,  3-C ) :   0.8888 B(  2-C ,  3-C ) :   1.0240 B(  2-C ,  6-C ) :   1.0015
B(  2-C ,  8-H ) :   0.9574 B(  3-C ,  4-C ) :   0.9746 B(  3-C ,  9-H ) :   0.9722
B(  4-C ,  5-C ) :   1.8241 B(  4-C , 10-H ) :   0.9961 B(  5-C ,  6-C ) :   1.0139
B(  5-C , 11-H ) :   0.9773 B(  6-C , 12-H ) :   0.9281 B(  6-C , 13-H ) :   0.9271

Dispersion correction           -0.009796034
FINAL SINGLE POINT ENERGY      -344.378471570086
Dispersion correction            ... done

DIPOLE MOMENT
-------------
                                X             Y             Z
Electronic contribution:     -0.88308       0.29850       1.74965
Nuclear contribution   :      1.75636       0.22933      -2.12477
                        -----------------------------------------
Total Dipole Moment    :      0.87328       0.52783      -0.37512
                        -----------------------------------------
Magnitude (a.u.)       :      1.08717
Magnitude (Debye)      :      2.76337

Rotational constants in cm-1:     0.199244     0.068717     0.058532
Rotational constants in MHz :  5973.195559  2060.092674  1754.731506

                             ****ORCA TERMINATED NORMALLY****
TOTAL RUN TIME: 0 days 0 hours 1 minutes 14 seconds 522 msec
