                         Program Version 5.0.4 -  RELEASE  -
|  1> ! EnGrad PBE0 RIJCOSX D3BJ def2-SVP def2/J
|  2> %output
|  3> xyzfile=True
|  4> end
|  5> %scf
|  6> maxiter 250
|  7> end
|  8> %output
|  9> Print[P_Hirshfeld] = 1
| 10> end
| 11> % maxcore
| 12> 4000
| 13> *xyz 0 2
| 14> O   -2.24969342  -0.71075872   1.42935458
| 15> O   -0.59020385  -0.14811913   0.91263977
| 16> C   -0.69757764   0.37712577  -0.37130747
| 17> C    0.32060919   1.15440545   0.38292910
| 18> C    1.57465576   0.45715621   0.24692677
| 19> C    1.30873107  -0.66631040  -0.46299439
| 20> C    0.01988722  -0.63373237  -1.21859636
| 21> H   -2.31981616  -0.03672184   2.12202954
| 22> H   -1.66633387   0.80554123  -0.65222361
| 23> H    0.12134031   2.09610441   0.89691389
| 24> H    2.49297758   0.68404328   0.78825568
| 25> H    2.03452266  -1.47305532  -0.60111345
| 26> H    0.18592901  -0.32209151  -2.26456008
| 27> H   -0.53503179  -1.58349313  -1.20826790
| 28> *
| 29>
| 30>                          ****END OF INPUT****

CARTESIAN COORDINATES (ANGSTROEM)
---------------------------------
  O     -2.249693   -0.710759    1.429355
  O     -0.590204   -0.148119    0.912640
  C     -0.697578    0.377126   -0.371307
  C      0.320609    1.154405    0.382929
  C      1.574656    0.457156    0.246927
  C      1.308731   -0.666310   -0.462994
  C      0.019887   -0.633732   -1.218596
  H     -2.319816   -0.036722    2.122030
  H     -1.666334    0.805541   -0.652224
  H      0.121340    2.096104    0.896914
  H      2.492978    0.684043    0.788256
  H      2.034523   -1.473055   -0.601113
  H      0.185929   -0.322092   -2.264560
  H     -0.535032   -1.583493   -1.208268

 Total Charge           Charge          ....    0
 Multiplicity           Mult            ....    2
 Number of Electrons    NEL             ....   53
 Basis Dimension        Dim             ....  133

ORBITAL ENERGIES
----------------
                 SPIN UP ORBITALS
  NO   OCC          E(Eh)            E(eV)
   0   1.0000     -19.240153      -523.5512
   1   1.0000     -19.179415      -521.8984
   2   1.0000     -10.300450      -280.2895
   3   1.0000     -10.294888      -280.1381
   4   1.0000     -10.253836      -279.0211
   5   1.0000     -10.245597      -278.7969
   6   1.0000     -10.244633      -278.7706
   7   1.0000      -1.090102       -29.6632
   8   1.0000      -0.944203       -25.6931
   9   1.0000      -0.849190       -23.1076
  10   1.0000      -0.754098       -20.5201
  11   1.0000      -0.702415       -19.1137
  12   1.0000      -0.592779       -16.1303
  13   1.0000      -0.572487       -15.5782
  14   1.0000      -0.564695       -15.3661
  15   1.0000      -0.484813       -13.1924
  16   1.0000      -0.472596       -12.8600
  17   1.0000      -0.428138       -11.6502
  18   1.0000      -0.418307       -11.3827
  19   1.0000      -0.411383       -11.1943
  20   1.0000      -0.403104       -10.9690
  21   1.0000      -0.378524       -10.3002
  22   1.0000      -0.370741       -10.0884
  23   1.0000      -0.319339        -8.6897
  24   1.0000      -0.290627        -7.9084
  25   1.0000      -0.264729        -7.2037
  26   1.0000      -0.211233        -5.7479
  27   0.0000      -0.032514        -0.8847
  28   0.0000       0.064654         1.7593
  29   0.0000       0.073509         2.0003
  30   0.0000       0.105298         2.8653
  31   0.0000       0.109512         2.9800

                 SPIN DOWN ORBITALS
  NO   OCC          E(Eh)            E(eV)
   0   1.0000     -19.235604      -523.4274
   1   1.0000     -19.157488      -521.3017
   2   1.0000     -10.297664      -280.2137
   3   1.0000     -10.295372      -280.1513
   4   1.0000     -10.250469      -278.9295
   5   1.0000     -10.247467      -278.8478
   6   1.0000     -10.244795      -278.7751
   7   1.0000      -1.083072       -29.4719
   8   1.0000      -0.894825       -24.3494
   9   1.0000      -0.840524       -22.8718
  10   1.0000      -0.753421       -20.5016
  11   1.0000      -0.696397       -18.9499
  12   1.0000      -0.590752       -16.0752
  13   1.0000      -0.570680       -15.5290
  14   1.0000      -0.560219       -15.2443
  15   1.0000      -0.474930       -12.9235
  16   1.0000      -0.468021       -12.7355
  17   1.0000      -0.423414       -11.5217
  18   1.0000      -0.415150       -11.2968
  19   1.0000      -0.409076       -11.1315
  20   1.0000      -0.389558       -10.6004
  21   1.0000      -0.372122       -10.1260
  22   1.0000      -0.352372        -9.5885
  23   1.0000      -0.296426        -8.0662
  24   1.0000      -0.258869        -7.0442
  25   1.0000      -0.244105        -6.6424
  26   0.0000      -0.057307        -1.5594
  27   0.0000      -0.002507        -0.0682
  28   0.0000       0.071666         1.9501
  29   0.0000       0.077557         2.1104
  30   0.0000       0.106480         2.8975

MULLIKEN ATOMIC CHARGES AND SPIN POPULATIONS
--------------------------------------------
   0 O :   -0.292446    0.755290
   1 O :   -0.308176    0.061184
   2 C :    0.046358   -0.026264
   3 C :    0.051160    0.158175
   4 C :    0.017454   -0.141554
   5 C :   -0.110638    0.225105
   6 C :    0.119992   -0.013638
   7 H :    0.155282   -0.016799
   8 H :    0.045972    0.004873
   9 H :    0.060022   -0.006881
  10 H :    0.038762    0.005649
  11 H :    0.039453   -0.011443
  12 H :    0.061066    0.003792
  13 H :    0.075739    0.002510
Sum of atomic charges         :    0.0000000

LOEWDIN ATOMIC CHARGES AND SPIN POPULATIONS
-------------------------------------------
   0 O :   -0.203833    0.707543
   1 O :   -0.108397    0.090269
   2 C :    0.055353   -0.011625
   3 C :    0.079989    0.120895
   4 C :   -0.055397   -0.091911
   5 C :    0.016750    0.173855
   6 C :   -0.047264   -0.002413
   7 H :    0.040288    0.005421
   8 H :    0.024047    0.002506
   9 H :    0.037185   -0.000173
  10 H :    0.036608    0.000261
  11 H :    0.029520   -0.000488
  12 H :    0.041798    0.004007
  13 H :    0.053354    0.001852

  Mayer bond orders larger than 0.100000
B(  0-O ,  1-O ) :   0.2945 B(  0-O ,  7-H ) :   0.9948 B(  1-O ,  2-C ) :   0.8767
B(  1-O ,  3-C ) :   0.7329 B(  1-O ,  5-C ) :   0.1079 B(  2-C ,  3-C ) :   0.9774
B(  2-C ,  6-C ) :   0.9986 B(  2-C ,  8-H ) :   0.9620 B(  3-C ,  4-C ) :   1.0512
B(  3-C ,  9-H ) :   0.9949 B(  4-C ,  5-C ) :   1.7426 B(  4-C , 10-H ) :   0.9962
B(  5-C ,  6-C ) :   1.0082 B(  5-C , 11-H ) :   0.9724 B(  6-C , 12-H ) :   0.9246
B(  6-C , 13-H ) :   0.9252

Dispersion correction           -0.009851067
FINAL SINGLE POINT ENERGY      -344.341139309851
Dispersion correction            ... done

DIPOLE MOMENT
-------------
                                X             Y             Z
Electronic contribution:     -0.53444       0.45719       1.63571
Nuclear contribution   :      1.23571       0.49975      -2.12220
                        -----------------------------------------
Total Dipole Moment    :      0.70126       0.95694      -0.48649
                        -----------------------------------------
Magnitude (a.u.)       :      1.28225
Magnitude (Debye)      :      3.25923

Rotational constants in cm-1:     0.175326     0.074785     0.065305
Rotational constants in MHz :  5256.131979  2241.988118  1957.789585

                             ****ORCA TERMINATED NORMALLY****
TOTAL RUN TIME: 0 days 0 hours 1 minutes 13 seconds 731 msec
