                         Program Version 5.0.4 -  RELEASE  -
|  1> ! EnGrad PBE0 RIJCOSX D3BJ def2-SVP def2/J
|  2> %output
|  3> xyzfile=True
|  4> end
|  5> %scf
|  6> maxiter 250
|  7> end
|  8> %output
|  9> Print[P_Hirshfeld] = 1
| 10> end
| 11> % maxcore
| 12> 4000
| 13> *xyz 0 2
| 14> O   -2.34449447  -0.74641772   1.44495091
| 15> O   -0.56789576  -0.00277860   0.95222756
| 16> C   -0.68117801   0.37057439  -0.37080203
| 17> C    0.27397170   1.09713376   0.39888012
| 18> C    1.58199223   0.43008755   0.22719652
| 19> C    1.40867145  -0.67283200  -0.51558866
| 20> C    0.01504702  -0.62282739  -1.22597514
| 21> H   -2.31502070  -0.05348862   2.12588660
| 22> H   -1.66672954   0.80635323  -0.65118085
| 23> H    0.12165522   2.09390227   0.89621800
| 24> H    2.49238977   0.68362901   0.78787597
| 25> H    2.03250818  -1.47392487  -0.59745994
| 26> H    0.18563791  -0.32710254  -2.26575832
| 27> H   -0.53612345  -1.58225774  -1.20645163
| 28> *
| 29>
| 30>                          ****END OF INPUT****

CARTESIAN COORDINATES (ANGSTROEM)
---------------------------------
  O     -2.344494   -0.746418    1.444951
  O     -0.567896   -0.002779    0.952228
  C     -0.681178    0.370574   -0.370802
  C      0.273972    1.097134    0.398880
  C      1.581992    0.430088    0.227197
  C      1.408671   -0.672832   -0.515589
  C      0.015047   -0.622827   -1.225975
  H     -2.315021   -0.053489    2.125887
  H     -1.666730    0.806353   -0.651181
  H      0.121655    2.093902    0.896218
  H      2.492390    0.683629    0.787876
  H      2.032508   -1.473925   -0.597460
  H      0.185638   -0.327103   -2.265758
  H     -0.536123   -1.582258   -1.206452

 Total Charge           Charge          ....    0
 Multiplicity           Mult            ....    2
 Number of Electrons    NEL             ....   53
 Basis Dimension        Dim             ....  133

ORBITAL ENERGIES
----------------
                 SPIN UP ORBITALS
  NO   OCC          E(Eh)            E(eV)
   0   1.0000     -19.231401      -523.3130
   1   1.0000     -19.203484      -522.5534
   2   1.0000     -10.296892      -280.1927
   3   1.0000     -10.288861      -279.9741
   4   1.0000     -10.243917      -278.7511
   5   1.0000     -10.243517      -278.7403
   6   1.0000     -10.242109      -278.7020
   7   1.0000      -1.122810       -30.5532
   8   1.0000      -0.962903       -26.2019
   9   1.0000      -0.842509       -22.9258
  10   1.0000      -0.744080       -20.2474
  11   1.0000      -0.694263       -18.8919
  12   1.0000      -0.595993       -16.2178
  13   1.0000      -0.577556       -15.7161
  14   1.0000      -0.561760       -15.2863
  15   1.0000      -0.482032       -13.1168
  16   1.0000      -0.470956       -12.8154
  17   1.0000      -0.435259       -11.8440
  18   1.0000      -0.423500       -11.5240
  19   1.0000      -0.419363       -11.4114
  20   1.0000      -0.401421       -10.9232
  21   1.0000      -0.370201       -10.0737
  22   1.0000      -0.362659        -9.8684
  23   1.0000      -0.321381        -8.7452
  24   1.0000      -0.302150        -8.2219
  25   1.0000      -0.282466        -7.6863
  26   1.0000      -0.248305        -6.7567
  27   0.0000      -0.008311        -0.2261
  28   0.0000       0.070678         1.9232
  29   0.0000       0.105935         2.8826
  30   0.0000       0.106730         2.9043
  31   0.0000       0.117573         3.1993

                 SPIN DOWN ORBITALS
  NO   OCC          E(Eh)            E(eV)
   0   1.0000     -19.227747      -523.2136
   1   1.0000     -19.178176      -521.8647
   2   1.0000     -10.295759      -280.1618
   3   1.0000     -10.289099      -279.9806
   4   1.0000     -10.243963      -278.7524
   5   1.0000     -10.243030      -278.7270
   6   1.0000     -10.242149      -278.7030
   7   1.0000      -1.118067       -30.4242
   8   1.0000      -0.897924       -24.4338
   9   1.0000      -0.839129       -22.8339
  10   1.0000      -0.743862       -20.2415
  11   1.0000      -0.689722       -18.7683
  12   1.0000      -0.594882       -16.1876
  13   1.0000      -0.576227       -15.6799
  14   1.0000      -0.558057       -15.1855
  15   1.0000      -0.473760       -12.8917
  16   1.0000      -0.467630       -12.7249
  17   1.0000      -0.427356       -11.6289
  18   1.0000      -0.418584       -11.3902
  19   1.0000      -0.403184       -10.9712
  20   1.0000      -0.396351       -10.7853
  21   1.0000      -0.366260        -9.9664
  22   1.0000      -0.346146        -9.4191
  23   1.0000      -0.298649        -8.1267
  24   1.0000      -0.263849        -7.1797
  25   1.0000      -0.257678        -7.0118
  26   0.0000      -0.068665        -1.8685
  27   0.0000       0.000045         0.0012
  28   0.0000       0.072217         1.9651
  29   0.0000       0.106539         2.8991
  30   0.0000       0.110171         2.9979

MULLIKEN ATOMIC CHARGES AND SPIN POPULATIONS
--------------------------------------------
   0 O :   -0.243488    0.903862
   1 O :   -0.326355    0.055932
   2 C :    0.054903   -0.012288
   3 C :    0.043783    0.053351
   4 C :    0.021601   -0.044179
   5 C :   -0.085916    0.070649
   6 C :    0.071573   -0.004247
   7 H :    0.167965   -0.022418
   8 H :    0.052930    0.002104
   9 H :    0.064080   -0.002394
  10 H :    0.037798    0.001898
  11 H :    0.004731   -0.003224
  12 H :    0.063386    0.000606
  13 H :    0.073008    0.000347
Sum of atomic charges         :    0.0000000

LOEWDIN ATOMIC CHARGES AND SPIN POPULATIONS
-------------------------------------------
   0 O :   -0.148706    0.859824
   1 O :   -0.122573    0.074442
   2 C :    0.040169   -0.005091
   3 C :    0.054958    0.041888
   4 C :   -0.050354   -0.029216
   5 C :    0.017726    0.054024
   6 C :   -0.041970   -0.001133
   7 H :    0.048070    0.002833
   8 H :    0.028024    0.001088
   9 H :    0.037718   -0.000379
  10 H :    0.034038    0.000204
  11 H :    0.011900    0.000468
  12 H :    0.041002    0.000774
  13 H :    0.049998    0.000273

  Mayer bond orders larger than 0.100000
B(  0-O ,  1-O ) :   0.1450 B(  0-O ,  7-H ) :   0.9884 B(  1-O ,  2-C ) :   0.9189
B(  1-O ,  3-C ) :   0.8510 B(  2-C ,  3-C ) :   1.0093 B(  2-C ,  6-C ) :   1.0139
B(  2-C ,  8-H ) :   0.9530 B(  3-C ,  4-C ) :   1.0045 B(  3-C ,  9-H ) :   0.9749
B(  4-C ,  5-C ) :   1.8105 B(  4-C , 10-H ) :   0.9937 B(  5-C ,  6-C ) :   1.0021
B(  5-C , 11-H ) :   0.9912 B(  6-C , 12-H ) :   0.9333 B(  6-C , 13-H ) :   0.9281

Dispersion correction           -0.009818947
FINAL SINGLE POINT ENERGY      -344.362302863341
Dispersion correction            ... done

DIPOLE MOMENT
-------------
                                X             Y             Z
Electronic contribution:     -0.71495       0.39168       1.78476
Nuclear contribution   :      1.25475       0.43351      -2.12254
                        -----------------------------------------
Total Dipole Moment    :      0.53980       0.82518      -0.33778
                        -----------------------------------------
Magnitude (a.u.)       :      1.04230
Magnitude (Debye)      :      2.64933

Rotational constants in cm-1:     0.176438     0.071508     0.062487
Rotational constants in MHz :  5289.470042  2143.769913  1873.298444

                             ****ORCA TERMINATED NORMALLY****
TOTAL RUN TIME: 0 days 0 hours 1 minutes 30 seconds 547 msec
