                         Program Version 5.0.4 -  RELEASE  -
|  1> ! EnGrad PBE0 RIJCOSX D3BJ def2-SVP def2/J
|  2> %output
|  3> xyzfile=True
|  4> end
|  5> %scf
|  6> maxiter 250
|  7> end
|  8> %output
|  9> Print[P_Hirshfeld] = 1
| 10> end
| 11> % maxcore
| 12> 4000
| 13> *xyz 0 2
| 14> O   -2.35053605  -0.74806369   1.44635955
| 15> O   -0.56542819   0.00260716   0.95530304
| 16> C   -0.69310974   0.37117612  -0.37967812
| 17> C    0.28159621   1.10409818   0.41057868
| 18> C    1.58634166   0.43032581   0.22789569
| 19> C    1.38891174  -0.65674444  -0.51863757
| 20> C    0.02339925  -0.62937191  -1.22225276
| 21> H   -2.31555523  -0.05592240   2.12608723
| 22> H   -1.66337059   0.80522871  -0.65122252
| 23> H    0.12275899   2.08925959   0.89179231
| 24> H    2.49087443   0.68352824   0.78734792
| 25> H    2.04558729  -1.48831948  -0.59985264
| 26> H    0.18419899  -0.32625532  -2.26727914
| 27> H   -0.53518246  -1.58149660  -1.20640491
| 28> *
| 29>
| 30>                          ****END OF INPUT****

CARTESIAN COORDINATES (ANGSTROEM)
---------------------------------
  O     -2.350536   -0.748064    1.446360
  O     -0.565428    0.002607    0.955303
  C     -0.693110    0.371176   -0.379678
  C      0.281596    1.104098    0.410579
  C      1.586342    0.430326    0.227896
  C      1.388912   -0.656744   -0.518638
  C      0.023399   -0.629372   -1.222253
  H     -2.315555   -0.055922    2.126087
  H     -1.663371    0.805229   -0.651223
  H      0.122759    2.089260    0.891792
  H      2.490874    0.683528    0.787348
  H      2.045587   -1.488319   -0.599853
  H      0.184199   -0.326255   -2.267279
  H     -0.535182   -1.581497   -1.206405

 Total Charge           Charge          ....    0
 Multiplicity           Mult            ....    2
 Number of Electrons    NEL             ....   53
 Basis Dimension        Dim             ....  133

ORBITAL ENERGIES
----------------
                 SPIN UP ORBITALS
  NO   OCC          E(Eh)            E(eV)
   0   1.0000     -19.230562      -523.2902
   1   1.0000     -19.203729      -522.5600
   2   1.0000     -10.296266      -280.1757
   3   1.0000     -10.289638      -279.9953
   4   1.0000     -10.244741      -278.7736
   5   1.0000     -10.244106      -278.7563
   6   1.0000     -10.240527      -278.6589
   7   1.0000      -1.116096       -30.3705
   8   1.0000      -0.963081       -26.2068
   9   1.0000      -0.843984       -22.9660
  10   1.0000      -0.745703       -20.2916
  11   1.0000      -0.690135       -18.7795
  12   1.0000      -0.597034       -16.2461
  13   1.0000      -0.572768       -15.5858
  14   1.0000      -0.562006       -15.2930
  15   1.0000      -0.481427       -13.1003
  16   1.0000      -0.469190       -12.7673
  17   1.0000      -0.434992       -11.8367
  18   1.0000      -0.423224       -11.5165
  19   1.0000      -0.417483       -11.3603
  20   1.0000      -0.403943       -10.9918
  21   1.0000      -0.375414       -10.2155
  22   1.0000      -0.359516        -9.7829
  23   1.0000      -0.320758        -8.7283
  24   1.0000      -0.301677        -8.2090
  25   1.0000      -0.282036        -7.6746
  26   1.0000      -0.248638        -6.7658
  27   0.0000      -0.006604        -0.1797
  28   0.0000       0.072127         1.9627
  29   0.0000       0.105171         2.8618
  30   0.0000       0.106973         2.9109
  31   0.0000       0.115715         3.1488

                 SPIN DOWN ORBITALS
  NO   OCC          E(Eh)            E(eV)
   0   1.0000     -19.226937      -523.1916
   1   1.0000     -19.178376      -521.8702
   2   1.0000     -10.295165      -280.1457
   3   1.0000     -10.289870      -280.0016
   4   1.0000     -10.244161      -278.7578
   5   1.0000     -10.243816      -278.7484
   6   1.0000     -10.241007      -278.6720
   7   1.0000      -1.111315       -30.2404
   8   1.0000      -0.897865       -24.4322
   9   1.0000      -0.840686       -22.8762
  10   1.0000      -0.745446       -20.2846
  11   1.0000      -0.685814       -18.6619
  12   1.0000      -0.596003       -16.2181
  13   1.0000      -0.571439       -15.5497
  14   1.0000      -0.558467       -15.1967
  15   1.0000      -0.473057       -12.8725
  16   1.0000      -0.465819       -12.6756
  17   1.0000      -0.426098       -11.5947
  18   1.0000      -0.416702       -11.3390
  19   1.0000      -0.405417       -11.0320
  20   1.0000      -0.398139       -10.8339
  21   1.0000      -0.370872       -10.0919
  22   1.0000      -0.341755        -9.2996
  23   1.0000      -0.297489        -8.0951
  24   1.0000      -0.263569        -7.1721
  25   1.0000      -0.257720        -7.0129
  26   0.0000      -0.068793        -1.8720
  27   0.0000       0.001109         0.0302
  28   0.0000       0.073628         2.0035
  29   0.0000       0.106668         2.9026
  30   0.0000       0.109551         2.9810

MULLIKEN ATOMIC CHARGES AND SPIN POPULATIONS
--------------------------------------------
   0 O :   -0.242433    0.906701
   1 O :   -0.333592    0.056273
   2 C :    0.053368   -0.011980
   3 C :    0.047651    0.051241
   4 C :    0.026530   -0.039501
   5 C :   -0.112418    0.064618
   6 C :    0.085903   -0.003823
   7 H :    0.167820   -0.022415
   8 H :    0.048397    0.001566
   9 H :    0.057165   -0.002314
  10 H :    0.035614    0.001712
  11 H :    0.028338   -0.003105
  12 H :    0.064364    0.000647
  13 H :    0.073294    0.000380
Sum of atomic charges         :    0.0000000

LOEWDIN ATOMIC CHARGES AND SPIN POPULATIONS
-------------------------------------------
   0 O :   -0.146931    0.863063
   1 O :   -0.130626    0.074288
   2 C :    0.051650   -0.005313
   3 C :    0.058743    0.040585
   4 C :   -0.051983   -0.025949
   5 C :    0.006579    0.049508
   6 C :   -0.044384   -0.000911
   7 H :    0.047310    0.002962
   8 H :    0.024923    0.000718
   9 H :    0.032919   -0.000298
  10 H :    0.033591    0.000180
  11 H :    0.024232    0.000065
  12 H :    0.043304    0.000810
  13 H :    0.050672    0.000292

  Mayer bond orders larger than 0.100000
B(  0-O ,  1-O ) :   0.1424 B(  0-O ,  7-H ) :   0.9885 B(  1-O ,  2-C ) :   0.9168
B(  1-O ,  3-C ) :   0.8532 B(  2-C ,  3-C ) :   1.0050 B(  2-C ,  6-C ) :   1.0073
B(  2-C ,  8-H ) :   0.9603 B(  3-C ,  4-C ) :   0.9999 B(  3-C ,  9-H ) :   0.9785
B(  4-C ,  5-C ) :   1.8168 B(  4-C , 10-H ) :   0.9953 B(  5-C ,  6-C ) :   1.0078
B(  5-C , 11-H ) :   0.9793 B(  6-C , 12-H ) :   0.9304 B(  6-C , 13-H ) :   0.9262

Dispersion correction           -0.009809006
FINAL SINGLE POINT ENERGY      -344.369707887641
Dispersion correction            ... done

DIPOLE MOMENT
-------------
                                X             Y             Z
Electronic contribution:     -0.75487       0.42845       1.79369
Nuclear contribution   :      1.28065       0.39734      -2.13815
                        -----------------------------------------
Total Dipole Moment    :      0.52578       0.82579      -0.34445
                        -----------------------------------------
Magnitude (a.u.)       :      1.03780
Magnitude (Debye)      :      2.63787

Rotational constants in cm-1:     0.175944     0.071506     0.062319
Rotational constants in MHz :  5274.669749  2143.702676  1868.287247

                             ****ORCA TERMINATED NORMALLY****
TOTAL RUN TIME: 0 days 0 hours 1 minutes 23 seconds 692 msec
