                         Program Version 5.0.4 -  RELEASE  -
|  1> ! EnGrad PBE0 RIJCOSX D3BJ def2-SVP def2/J
|  2> %output
|  3> xyzfile=True
|  4> end
|  5> %scf
|  6> maxiter 250
|  7> end
|  8> %output
|  9> Print[P_Hirshfeld] = 1
| 10> end
| 11> % maxcore
| 12> 4000
| 13> *xyz 0 2
| 14> O   -2.37071333   0.57656333   1.76792000
| 15> O   -0.48441333  -0.34348333   0.82124333
| 16> C   -0.73203667   0.17418333  -0.45504000
| 17> C    0.14652000   0.89156333   0.50256333
| 18> C    1.52920000   0.45519000   0.24566000
| 19> C    1.37964333  -0.61510667  -0.53729667
| 20> C    0.11868667  -0.67409667  -1.33955333
| 21> H   -2.24923333  -0.19696000   2.34028667
| 22> H   -1.75762667   0.48453667  -0.66887333
| 23> H   -0.18354000   1.76042000   1.07414667
| 24> H    2.41693333   0.75371333   0.80127000
| 25> H    2.20520333  -1.29810333  -0.76596000
| 26> H    0.28380333  -0.28027000  -2.35668000
| 27> H   -0.30243000  -1.68804667  -1.42969000
| 28> *
| 29>
| 30>                          ****END OF INPUT****

CARTESIAN COORDINATES (ANGSTROEM)
---------------------------------
  O     -2.370713    0.576563    1.767920
  O     -0.484413   -0.343483    0.821243
  C     -0.732037    0.174183   -0.455040
  C      0.146520    0.891563    0.502563
  C      1.529200    0.455190    0.245660
  C      1.379643   -0.615107   -0.537297
  C      0.118687   -0.674097   -1.339553
  H     -2.249233   -0.196960    2.340287
  H     -1.757627    0.484537   -0.668873
  H     -0.183540    1.760420    1.074147
  H      2.416933    0.753713    0.801270
  H      2.205203   -1.298103   -0.765960
  H      0.283803   -0.280270   -2.356680
  H     -0.302430   -1.688047   -1.429690

 Total Charge           Charge          ....    0
 Multiplicity           Mult            ....    2
 Number of Electrons    NEL             ....   53
 Basis Dimension        Dim             ....  133

ORBITAL ENERGIES
----------------
                 SPIN UP ORBITALS
  NO   OCC          E(Eh)            E(eV)
   0   1.0000     -19.231665      -523.3202
   1   1.0000     -19.221200      -523.0354
   2   1.0000     -10.288512      -279.9647
   3   1.0000     -10.287776      -279.9446
   4   1.0000     -10.244476      -278.7664
   5   1.0000     -10.240907      -278.6692
   6   1.0000     -10.233988      -278.4810
   7   1.0000      -1.133138       -30.8343
   8   1.0000      -0.974967       -26.5302
   9   1.0000      -0.842452       -22.9243
  10   1.0000      -0.752822       -20.4853
  11   1.0000      -0.678191       -18.4545
  12   1.0000      -0.599124       -16.3030
  13   1.0000      -0.567784       -15.4502
  14   1.0000      -0.563188       -15.3251
  15   1.0000      -0.473558       -12.8862
  16   1.0000      -0.469287       -12.7699
  17   1.0000      -0.442439       -12.0394
  18   1.0000      -0.436335       -11.8733
  19   1.0000      -0.412542       -11.2258
  20   1.0000      -0.400618       -10.9014
  21   1.0000      -0.386380       -10.5139
  22   1.0000      -0.364014        -9.9053
  23   1.0000      -0.328999        -8.9525
  24   1.0000      -0.304300        -8.2804
  25   1.0000      -0.298962        -8.1352
  26   1.0000      -0.246060        -6.6956
  27   0.0000      -0.005586        -0.1520
  28   0.0000       0.079072         2.1517
  29   0.0000       0.100399         2.7320
  30   0.0000       0.109460         2.9786
  31   0.0000       0.117600         3.2001

                 SPIN DOWN ORBITALS
  NO   OCC          E(Eh)            E(eV)
   0   1.0000     -19.227498      -523.2068
   1   1.0000     -19.195949      -522.3483
   2   1.0000     -10.288614      -279.9674
   3   1.0000     -10.287851      -279.9467
   4   1.0000     -10.244458      -278.7659
   5   1.0000     -10.240824      -278.6670
   6   1.0000     -10.233826      -278.4766
   7   1.0000      -1.127677       -30.6856
   8   1.0000      -0.906447       -24.6657
   9   1.0000      -0.840510       -22.8714
  10   1.0000      -0.752569       -20.4785
  11   1.0000      -0.676192       -18.4001
  12   1.0000      -0.598628       -16.2895
  13   1.0000      -0.566084       -15.4039
  14   1.0000      -0.560240       -15.2449
  15   1.0000      -0.470171       -12.7940
  16   1.0000      -0.468545       -12.7498
  17   1.0000      -0.434088       -11.8121
  18   1.0000      -0.418325       -11.3832
  19   1.0000      -0.406489       -11.0611
  20   1.0000      -0.400271       -10.8919
  21   1.0000      -0.375534       -10.2188
  22   1.0000      -0.328349        -8.9348
  23   1.0000      -0.299899        -8.1607
  24   1.0000      -0.278710        -7.5841
  25   1.0000      -0.247151        -6.7253
  26   0.0000      -0.089828        -2.4444
  27   0.0000      -0.004763        -0.1296
  28   0.0000       0.080612         2.1936
  29   0.0000       0.104232         2.8363
  30   0.0000       0.111342         3.0298

MULLIKEN ATOMIC CHARGES AND SPIN POPULATIONS
--------------------------------------------
   0 O :   -0.243668    0.924504
   1 O :   -0.313830    0.099181
   2 C :   -0.004541   -0.006123
   3 C :    0.082113   -0.006632
   4 C :    0.023442    0.010090
   5 C :   -0.139783    0.001880
   6 C :    0.112630    0.000153
   7 H :    0.177257   -0.024887
   8 H :    0.061225    0.001731
   9 H :    0.054067    0.000736
  10 H :    0.036428   -0.000487
  11 H :    0.030409    0.000070
  12 H :    0.064037   -0.000052
  13 H :    0.060214   -0.000164
Sum of atomic charges         :    0.0000000

LOEWDIN ATOMIC CHARGES AND SPIN POPULATIONS
-------------------------------------------
   0 O :   -0.133132    0.887110
   1 O :   -0.120015    0.105395
   2 C :    0.051592   -0.002067
   3 C :    0.052831   -0.003741
   4 C :   -0.056432    0.008061
   5 C :   -0.005655    0.001851
   6 C :   -0.048128    0.000210
   7 H :    0.054482    0.002154
   8 H :    0.026568    0.000840
   9 H :    0.028535    0.000347
  10 H :    0.034395    0.000084
  11 H :    0.024774    0.000044
  12 H :    0.044508   -0.000126
  13 H :    0.045675   -0.000161

  Mayer bond orders larger than 0.100000
B(  0-O ,  1-O ) :   0.1444 B(  0-O ,  7-H ) :   0.9840 B(  1-O ,  2-C ) :   0.9294
B(  1-O ,  3-C ) :   0.8987 B(  2-C ,  3-C ) :   1.0198 B(  2-C ,  6-C ) :   0.9953
B(  2-C ,  8-H ) :   0.9680 B(  3-C ,  4-C ) :   0.9690 B(  3-C ,  9-H ) :   0.9787
B(  4-C ,  5-C ) :   1.8330 B(  4-C , 10-H ) :   0.9954 B(  5-C ,  6-C ) :   1.0204
B(  5-C , 11-H ) :   0.9664 B(  6-C , 12-H ) :   0.9243 B(  6-C , 13-H ) :   0.9234

Dispersion correction           -0.009744848
FINAL SINGLE POINT ENERGY      -344.369932383082
Dispersion correction            ... done

DIPOLE MOMENT
-------------
                                X             Y             Z
Electronic contribution:     -0.98868       0.63726       1.98553
Nuclear contribution   :      1.40578      -0.83483      -2.32873
                        -----------------------------------------
Total Dipole Moment    :      0.41710      -0.19757      -0.34319
                        -----------------------------------------
Magnitude (a.u.)       :      0.57514
Magnitude (Debye)      :      1.46190

Rotational constants in cm-1:     0.202618     0.068452     0.058234
Rotational constants in MHz :  6074.329221  2052.135898  1745.807163

                             ****ORCA TERMINATED NORMALLY****
TOTAL RUN TIME: 0 days 0 hours 1 minutes 14 seconds 914 msec
