                         Program Version 5.0.4 -  RELEASE  -
|  1> ! EnGrad PBE0 RIJCOSX D3BJ def2-SVP def2/J
|  2> %output
|  3> xyzfile=True
|  4> end
|  5> %scf
|  6> maxiter 250
|  7> end
|  8> %output
|  9> Print[P_Hirshfeld] = 1
| 10> end
| 11> % maxcore
| 12> 4000
| 13> *xyz 0 2
| 14> O   -2.38806146   0.59173170   1.77325835
| 15> O   -0.61023873  -0.33272960   0.91805102
| 16> C   -0.73215644   0.17167991  -0.45438720
| 17> C    0.14671963   0.89030611   0.50425075
| 18> C    1.53122980   0.45495131   0.24324034
| 19> C    1.51671340  -0.63466957  -0.63722370
| 20> C    0.12075089  -0.67429087  -1.34088616
| 21> H   -2.25317008  -0.19463260   2.34274132
| 22> H   -1.75796293   0.47954362  -0.66606064
| 23> H   -0.18346343   1.75621358   1.07717044
| 24> H    2.41887945   0.75530347   0.79864282
| 25> H    2.20665087  -1.29704877  -0.76813325
| 26> H    0.28457945  -0.27782460  -2.35748976
| 27> H   -0.30015083  -1.68836491  -1.43302410
| 28> *
| 29>
| 30>                          ****END OF INPUT****

CARTESIAN COORDINATES (ANGSTROEM)
---------------------------------
  O     -2.388061    0.591732    1.773258
  O     -0.610239   -0.332730    0.918051
  C     -0.732156    0.171680   -0.454387
  C      0.146720    0.890306    0.504251
  C      1.531230    0.454951    0.243240
  C      1.516713   -0.634670   -0.637224
  C      0.120751   -0.674291   -1.340886
  H     -2.253170   -0.194633    2.342741
  H     -1.757963    0.479544   -0.666061
  H     -0.183463    1.756214    1.077170
  H      2.418879    0.755303    0.798643
  H      2.206651   -1.297049   -0.768133
  H      0.284579   -0.277825   -2.357490
  H     -0.300151   -1.688365   -1.433024

 Total Charge           Charge          ....    0
 Multiplicity           Mult            ....    2
 Number of Electrons    NEL             ....   53
 Basis Dimension        Dim             ....  133

ORBITAL ENERGIES
----------------
                 SPIN UP ORBITALS
  NO   OCC          E(Eh)            E(eV)
   0   1.0000     -19.235197      -523.4163
   1   1.0000     -19.208272      -522.6837
   2   1.0000     -10.296397      -280.1792
   3   1.0000     -10.294808      -280.1360
   4   1.0000     -10.253822      -279.0207
   5   1.0000     -10.251372      -278.9540
   6   1.0000     -10.250779      -278.9379
   7   1.0000      -1.089352       -29.6428
   8   1.0000      -0.959316       -26.1043
   9   1.0000      -0.837927       -22.8012
  10   1.0000      -0.744338       -20.2545
  11   1.0000      -0.692614       -18.8470
  12   1.0000      -0.598719       -16.2920
  13   1.0000      -0.583277       -15.8718
  14   1.0000      -0.555620       -15.1192
  15   1.0000      -0.477367       -12.9898
  16   1.0000      -0.460812       -12.5393
  17   1.0000      -0.435647       -11.8546
  18   1.0000      -0.424355       -11.5473
  19   1.0000      -0.413628       -11.2554
  20   1.0000      -0.411769       -11.2048
  21   1.0000      -0.375020       -10.2048
  22   1.0000      -0.368944       -10.0395
  23   1.0000      -0.333749        -9.0818
  24   1.0000      -0.292372        -7.9559
  25   1.0000      -0.285283        -7.7630
  26   1.0000      -0.254120        -6.9150
  27   0.0000      -0.025653        -0.6981
  28   0.0000       0.080461         2.1895
  29   0.0000       0.092749         2.5238
  30   0.0000       0.107707         2.9308
  31   0.0000       0.111698         3.0395

                 SPIN DOWN ORBITALS
  NO   OCC          E(Eh)            E(eV)
   0   1.0000     -19.229876      -523.2715
   1   1.0000     -19.183259      -522.0030
   2   1.0000     -10.296536      -280.1830
   3   1.0000     -10.294945      -280.1397
   4   1.0000     -10.253806      -279.0203
   5   1.0000     -10.251341      -278.9532
   6   1.0000     -10.250645      -278.9342
   7   1.0000      -1.081984       -29.4423
   8   1.0000      -0.893188       -24.3049
   9   1.0000      -0.835305       -22.7298
  10   1.0000      -0.744278       -20.2528
  11   1.0000      -0.690141       -18.7797
  12   1.0000      -0.598039       -16.2735
  13   1.0000      -0.582530       -15.8514
  14   1.0000      -0.552738       -15.0408
  15   1.0000      -0.472274       -12.8512
  16   1.0000      -0.458941       -12.4884
  17   1.0000      -0.429252       -11.6805
  18   1.0000      -0.413315       -11.2469
  19   1.0000      -0.411898       -11.2083
  20   1.0000      -0.401011       -10.9121
  21   1.0000      -0.369935       -10.0665
  22   1.0000      -0.336855        -9.1663
  23   1.0000      -0.294187        -8.0052
  24   1.0000      -0.267425        -7.2770
  25   1.0000      -0.257966        -7.0196
  26   0.0000      -0.071922        -1.9571
  27   0.0000      -0.024480        -0.6661
  28   0.0000       0.082495         2.2448
  29   0.0000       0.094660         2.5758
  30   0.0000       0.109577         2.9817

MULLIKEN ATOMIC CHARGES AND SPIN POPULATIONS
--------------------------------------------
   0 O :   -0.265804    0.902597
   1 O :   -0.347819    0.126681
   2 C :    0.015940   -0.007917
   3 C :    0.082807   -0.007674
   4 C :    0.027705   -0.001399
   5 C :   -0.056958    0.008758
   6 C :    0.072840   -0.000162
   7 H :    0.179321   -0.024442
   8 H :    0.073181    0.002400
   9 H :    0.065248    0.001265
  10 H :    0.040163    0.000115
  11 H :   -0.027544   -0.000415
  12 H :    0.073204    0.000307
  13 H :    0.067717   -0.000114
Sum of atomic charges         :   -0.0000000

LOEWDIN ATOMIC CHARGES AND SPIN POPULATIONS
-------------------------------------------
   0 O :   -0.163041    0.865220
   1 O :   -0.164416    0.135603
   2 C :    0.074663   -0.004233
   3 C :    0.072919   -0.005347
   4 C :   -0.046909   -0.000578
   5 C :    0.031533    0.006681
   6 C :   -0.046148    0.000319
   7 H :    0.056840    0.000417
   8 H :    0.032890    0.001138
   9 H :    0.033436    0.000542
  10 H :    0.031985    0.000122
  11 H :   -0.006485    0.000075
  12 H :    0.047162    0.000144
  13 H :    0.045571   -0.000103

  Mayer bond orders larger than 0.100000
B(  0-O ,  1-O ) :   0.1816 B(  0-O ,  7-H ) :   0.9803 B(  1-O ,  2-C ) :   0.9098
B(  1-O ,  3-C ) :   0.8721 B(  2-C ,  3-C ) :   1.0212 B(  2-C ,  6-C ) :   1.0047
B(  2-C ,  8-H ) :   0.9595 B(  3-C ,  4-C ) :   0.9899 B(  3-C ,  9-H ) :   0.9712
B(  4-C ,  5-C ) :   1.8041 B(  4-C , 10-H ) :   0.9940 B(  5-C ,  6-C ) :   1.0029
B(  5-C , 11-H ) :   1.0016 B(  6-C , 12-H ) :   0.9284 B(  6-C , 13-H ) :   0.9306

Dispersion correction           -0.009732746
FINAL SINGLE POINT ENERGY      -344.366153362499
Dispersion correction            ... done

DIPOLE MOMENT
-------------
                                X             Y             Z
Electronic contribution:     -0.80972       0.59962       1.83717
Nuclear contribution   :      1.44517      -0.84489      -2.35554
                        -----------------------------------------
Total Dipole Moment    :      0.63545      -0.24527      -0.51837
                        -----------------------------------------
Magnitude (a.u.)       :      0.85596
Magnitude (Debye)      :      2.17568

Rotational constants in cm-1:     0.202077     0.065048     0.055789
Rotational constants in MHz :  6058.118305  1950.099388  1672.515607

                             ****ORCA TERMINATED NORMALLY****
TOTAL RUN TIME: 0 days 0 hours 1 minutes 13 seconds 946 msec
