                         Program Version 5.0.4 -  RELEASE  -
|  1> ! EnGrad PBE0 RIJCOSX D3BJ def2-SVP def2/J
|  2> %output
|  3> xyzfile=True
|  4> end
|  5> %scf
|  6> maxiter 250
|  7> end
|  8> %output
|  9> Print[P_Hirshfeld] = 1
| 10> end
| 11> % maxcore
| 12> 4000
| 13> *xyz 0 2
| 14> O   -2.38978063   0.59071304   1.77592639
| 15> O   -0.60588167  -0.32517084   0.90843369
| 16> C   -0.73033498   0.16914854  -0.44393102
| 17> C    0.14199375   0.88234438   0.50510908
| 18> C    1.53429025   0.43870656   0.23324065
| 19> C    1.47655138  -0.59111047  -0.62294991
| 20> C    0.12982265  -0.67781981  -1.33908498
| 21> H   -2.25406409  -0.19181162   2.34110878
| 22> H   -1.75741763   0.48027361  -0.66745517
| 23> H   -0.18264250   1.75714426   1.07652462
| 24> H    2.41856882   0.75611548   0.79966599
| 25> H    2.23643545  -1.32259816  -0.77529141
| 26> H    0.28244324  -0.27728938  -2.35779714
| 27> H   -0.29963336  -1.68849897  -1.43337899
| 28> *
| 29>
| 30>                          ****END OF INPUT****

CARTESIAN COORDINATES (ANGSTROEM)
---------------------------------
  O     -2.389781    0.590713    1.775926
  O     -0.605882   -0.325171    0.908434
  C     -0.730335    0.169149   -0.443931
  C      0.141994    0.882344    0.505109
  C      1.534290    0.438707    0.233241
  C      1.476551   -0.591110   -0.622950
  C      0.129823   -0.677820   -1.339085
  H     -2.254064   -0.191812    2.341109
  H     -1.757418    0.480274   -0.667455
  H     -0.182643    1.757144    1.076525
  H      2.418569    0.756115    0.799666
  H      2.236435   -1.322598   -0.775291
  H      0.282443   -0.277289   -2.357797
  H     -0.299633   -1.688499   -1.433379

 Total Charge           Charge          ....    0
 Multiplicity           Mult            ....    2
 Number of Electrons    NEL             ....   53
 Basis Dimension        Dim             ....  133

ORBITAL ENERGIES
----------------
                 SPIN UP ORBITALS
  NO   OCC          E(Eh)            E(eV)
   0   1.0000     -19.235115      -523.4141
   1   1.0000     -19.209887      -522.7276
   2   1.0000     -10.293898      -280.1112
   3   1.0000     -10.292323      -280.0683
   4   1.0000     -10.251297      -278.9520
   5   1.0000     -10.248642      -278.8797
   6   1.0000     -10.243881      -278.7502
   7   1.0000      -1.101746       -29.9800
   8   1.0000      -0.962897       -26.2017
   9   1.0000      -0.846346       -23.0302
  10   1.0000      -0.745365       -20.2824
  11   1.0000      -0.686218       -18.6729
  12   1.0000      -0.598247       -16.2791
  13   1.0000      -0.571661       -15.5557
  14   1.0000      -0.557814       -15.1789
  15   1.0000      -0.478200       -13.0125
  16   1.0000      -0.461473       -12.5573
  17   1.0000      -0.433818       -11.8048
  18   1.0000      -0.423389       -11.5210
  19   1.0000      -0.418758       -11.3950
  20   1.0000      -0.406442       -11.0599
  21   1.0000      -0.380835       -10.3631
  22   1.0000      -0.366855        -9.9826
  23   1.0000      -0.333663        -9.0794
  24   1.0000      -0.294200        -8.0056
  25   1.0000      -0.286754        -7.8030
  26   1.0000      -0.259427        -7.0594
  27   0.0000      -0.012675        -0.3449
  28   0.0000       0.077902         2.1198
  29   0.0000       0.097685         2.6581
  30   0.0000       0.108948         2.9646
  31   0.0000       0.111714         3.0399

                 SPIN DOWN ORBITALS
  NO   OCC          E(Eh)            E(eV)
   0   1.0000     -19.229993      -523.2747
   1   1.0000     -19.184789      -522.0447
   2   1.0000     -10.294031      -280.1148
   3   1.0000     -10.292452      -280.0718
   4   1.0000     -10.251276      -278.9514
   5   1.0000     -10.248518      -278.8763
   6   1.0000     -10.243845      -278.7492
   7   1.0000      -1.094777       -29.7904
   8   1.0000      -0.896462       -24.3940
   9   1.0000      -0.843815       -22.9614
  10   1.0000      -0.745258       -20.2795
  11   1.0000      -0.683659       -18.6033
  12   1.0000      -0.597737       -16.2653
  13   1.0000      -0.570682       -15.5291
  14   1.0000      -0.554639       -15.0925
  15   1.0000      -0.472816       -12.8660
  16   1.0000      -0.460323       -12.5260
  17   1.0000      -0.421862       -11.4794
  18   1.0000      -0.419805       -11.4235
  19   1.0000      -0.407140       -11.0788
  20   1.0000      -0.402809       -10.9610
  21   1.0000      -0.373997       -10.1770
  22   1.0000      -0.336968        -9.1694
  23   1.0000      -0.293031        -7.9738
  24   1.0000      -0.269386        -7.3304
  25   1.0000      -0.263939        -7.1821
  26   0.0000      -0.074005        -2.0138
  27   0.0000      -0.011739        -0.3194
  28   0.0000       0.079392         2.1604
  29   0.0000       0.100673         2.7394
  30   0.0000       0.109250         2.9728

MULLIKEN ATOMIC CHARGES AND SPIN POPULATIONS
--------------------------------------------
   0 O :   -0.259519    0.907156
   1 O :   -0.339685    0.120596
   2 C :    0.007652   -0.007271
   3 C :    0.074212   -0.007262
   4 C :    0.034588    0.000374
   5 C :   -0.123270    0.006766
   6 C :    0.085212    0.000087
   7 H :    0.177440   -0.024186
   8 H :    0.070839    0.002602
   9 H :    0.063854    0.001422
  10 H :    0.039778    0.000025
  11 H :    0.030835   -0.000448
  12 H :    0.071766    0.000270
  13 H :    0.066299   -0.000130
Sum of atomic charges         :    0.0000000

LOEWDIN ATOMIC CHARGES AND SPIN POPULATIONS
-------------------------------------------
   0 O :   -0.155353    0.869175
   1 O :   -0.151601    0.129591
   2 C :    0.066856   -0.003580
   3 C :    0.069071   -0.004808
   4 C :   -0.054429    0.000859
   5 C :    0.002019    0.005039
   6 C :   -0.048304    0.000485
   7 H :    0.053963    0.001278
   8 H :    0.031376    0.001289
   9 H :    0.032504    0.000656
  10 H :    0.035496    0.000112
  11 H :    0.024494   -0.000116
  12 H :    0.048010    0.000132
  13 H :    0.045899   -0.000112

  Mayer bond orders larger than 0.100000
B(  0-O ,  1-O ) :   0.1743 B(  0-O ,  7-H ) :   0.9821 B(  1-O ,  2-C ) :   0.9172
B(  1-O ,  3-C ) :   0.8796 B(  2-C ,  3-C ) :   1.0269 B(  2-C ,  6-C ) :   1.0013
B(  2-C ,  8-H ) :   0.9579 B(  3-C ,  4-C ) :   0.9788 B(  3-C ,  9-H ) :   0.9696
B(  4-C ,  5-C ) :   1.8220 B(  4-C , 10-H ) :   0.9945 B(  5-C ,  6-C ) :   1.0118
B(  5-C , 11-H ) :   0.9771 B(  6-C , 12-H ) :   0.9272 B(  6-C , 13-H ) :   0.9290

Dispersion correction           -0.009729908
FINAL SINGLE POINT ENERGY      -344.386009631993
Dispersion correction            ... done

DIPOLE MOMENT
-------------
                                X             Y             Z
Electronic contribution:     -0.87976       0.63349       1.88352
Nuclear contribution   :      1.49181      -0.87967      -2.37127
                        -----------------------------------------
Total Dipole Moment    :      0.61205      -0.24618      -0.48775
                        -----------------------------------------
Magnitude (a.u.)       :      0.82044
Magnitude (Debye)      :      2.08538

Rotational constants in cm-1:     0.205518     0.065597     0.056192
Rotational constants in MHz :  6161.261847  1966.549842  1684.584646

                             ****ORCA TERMINATED NORMALLY****
TOTAL RUN TIME: 0 days 0 hours 1 minutes 13 seconds 248 msec
