   * xtb version 6.6.1 (8d0f1dd) compiled by 'conda@1efc2f54142f' on 2023-08-01
          program call               : /gpfs/fs1/home/copan/code/autode-practice/.pixi/envs/default/bin/xtb path_opt3_xtb.xyz --chrg 0 --uhf 1 --opt --input xcontrol_path_opt3_xtb

   ID    Z sym.   atoms
    1    8 O      1, 2
    2    6 C      3-7
    3    1 H      8-16
constraining bond 2 5 to    2.0371000 Å, actual value:    2.3347333 Å
constraining bond 1 2 to    1.7435000 Å, actual value:    1.6919206 Å

          :  Hamiltonian                  GFN2-xTB          :
 * total energy  :   -22.5917314 Eh     change       -0.2174652E-09 Eh
 * total energy  :   -22.9701748 Eh     change       -0.3784434E+00 Eh
 * total energy  :   -23.2320852 Eh     change       -0.2619104E+00 Eh
 * total energy  :   -23.2353780 Eh     change       -0.3292749E-02 Eh
 * total energy  :   -23.2375880 Eh     change       -0.2210048E-02 Eh
 * total energy  :   -23.2381977 Eh     change       -0.6096651E-03 Eh
 * total energy  :   -23.2390633 Eh     change       -0.8655969E-03 Eh
 * total energy  :   -23.2394143 Eh     change       -0.3509922E-03 Eh
 * total energy  :   -23.2397288 Eh     change       -0.3145842E-03 Eh
 * total energy  :   -23.2399177 Eh     change       -0.1888195E-03 Eh
 * total energy  :   -23.2401997 Eh     change       -0.8740970E-04 Eh
 * total energy  :   -23.2402355 Eh     change       -0.3578567E-04 Eh
 * total energy  :   -23.2402537 Eh     change       -0.1820693E-04 Eh
 * total energy  :   -23.2402684 Eh     change       -0.1466959E-04 Eh
 * total energy  :   -23.2402820 Eh     change       -0.1364577E-04 Eh
 * total energy  :   -23.2402939 Eh     change       -0.1190720E-04 Eh
 * total energy  :   -23.2403020 Eh     change       -0.8022958E-05 Eh
 * total energy  :   -23.2403066 Eh     change       -0.4660164E-05 Eh
 * total energy  :   -23.2403087 Eh     change       -0.2072582E-05 Eh
   *** GEOMETRY OPTIMIZATION CONVERGED AFTER 20 ITERATIONS ***

 final structure:
================
16
 xtb: 6.6.1 (8d0f1dd)
O            2.62773258141332       -0.21265829372418        0.88115918098453
O            0.92309663763959       -0.54115705451111        0.78443445862261
C            0.58203605295945       -0.46003794206465       -0.57760826418278
C           -0.73832347091424       -1.22148857932155       -0.41634668184619
C           -1.09897324142752       -0.31372559888840        0.71759576576899
C           -0.97412174420787        1.09719806771840        0.25595143798690
C            0.11001370557961        0.97719722541248       -0.83811656367411
H            2.73993936350019       -0.45141212950679        1.80225973638229
H            1.36749128045699       -0.84156052652928       -1.22868512492500
H           -0.59414010307414       -2.25655582887415       -0.12019200609759
H           -1.40940878726044       -1.15761992497446       -1.27761414813155
H           -1.57036444741213       -0.61473125167858        1.63457246037704
H           -0.67367113239507        1.75962411347199        1.06731463643469
H           -1.92294193986259        1.46925907958600       -0.14463068307532
H            0.92326716761080        1.68408757577679       -0.69541849204808
H           -0.29136192260593        1.08377106810752       -1.84468571257642

          :  Hamiltonian                  GFN2-xTB          :
         :: total energy             -23.240308697077 Eh    ::
         :: gradient norm              0.000678170539 Eh/a0 ::
         :: HOMO-LUMO gap              2.162602869375 eV    ::
         :: SCC energy               -23.474413796389 Eh    ::
         :: -> dispersion             -0.009872486323 Eh    ::
         :: repulsion energy           0.233902360121 Eh    ::

    * Orbital Energies and Occupations

         #    Occupation            Energy/Eh            Energy/eV
      -------------------------------------------------------------
         1        2.0000           -0.6915805             -18.8189
       ...           ...                  ...                  ...
         9        2.0000           -0.5421926             -14.7538
        10        2.0000           -0.5346508             -14.5486
        11        2.0000           -0.5226379             -14.2217
        12        2.0000           -0.4981992             -13.5567
        13        2.0000           -0.4859500             -13.2234
        14        2.0000           -0.4763175             -12.9613
        15        2.0000           -0.4711681             -12.8211
        16        2.0000           -0.4653692             -12.6633
        17        2.0000           -0.4555766             -12.3969
        18        2.0000           -0.4425766             -12.0431
        19        2.0000           -0.4337481             -11.8029
        20        2.0000           -0.4012785             -10.9193
        21        1.0000           -0.3326506              -9.0519 (HOMO)
        22                         -0.2531764              -6.8893 (LUMO)
        23                          0.0330965               0.9006
        24                          0.0527992               1.4367
        25                          0.0638528               1.7375
        26                          0.0882517               2.4015
        27                          0.1092265               2.9722
        28                          0.1290216               3.5109
        29                          0.1443963               3.9292
        30                          0.1635361               4.4500
        31                          0.1821043               4.9553
        32                          0.1938196               5.2741
       ...                                ...                  ...
        37                          0.3661307               9.9629
      -------------------------------------------------------------
                  HL-Gap            0.0794742 Eh            2.1626 eV

     #   Z          covCN         q      C6AA      α(0)
     1   8 O        1.154    -0.445    22.423     6.357
     2   8 O        1.339    -0.262    18.737     5.823
     3   6 C        3.998     0.134    18.348     6.085
     4   6 C        3.858    -0.059    21.588     6.608
     5   6 C        3.266     0.018    26.381     8.290
     6   6 C        3.841    -0.055    21.537     6.602
     7   6 C        3.845    -0.070    21.805     6.642
     8   1 H        0.806     0.287     0.762     1.371
     9   1 H        0.925     0.047     2.352     2.398
    10   1 H        0.925     0.062     2.174     2.306
    11   1 H        0.924     0.056     2.242     2.342
    12   1 H        0.926     0.061     2.185     2.312
    13   1 H        0.925     0.067     2.120     2.277
    14   1 H        0.924     0.059     2.213     2.326
    15   1 H        0.925     0.063     2.163     2.300
    16   1 H        0.925     0.037     2.490     2.467

Wiberg/Mayer (AO) data.
largest (>0.10) Wiberg bond orders for each atom

     #   Z sym  total        # sym  WBO       # sym  WBO       # sym  WBO
 ---------------------------------------------------------------------------
     1   8 O    1.846 --     8 H    0.915     2 O    0.666     5 C    0.185
     2   8 O    2.112 --     3 C    0.998     1 O    0.666     5 C    0.357
     3   6 C    3.947 --     2 O    0.998     7 C    0.984     9 H    0.960
                             4 C    0.949
     4   6 C    3.988 --     5 C    1.039    10 H    0.973     3 C    0.949
                            11 H    0.944
     5   6 C    3.726 --     6 C    1.063     4 C    1.039    12 H    0.972
                             2 O    0.357     1 O    0.185
     6   6 C    3.996 --     5 C    1.063     7 C    0.995    13 H    0.963
                            14 H    0.940
     7   6 C    3.995 --     6 C    0.995     3 C    0.984    16 H    0.980
                            15 H    0.978
     8   1 H    0.918 --     1 O    0.915
     9   1 H    0.998 --     3 C    0.960
    10   1 H    0.996 --     4 C    0.973
    11   1 H    0.995 --     4 C    0.944
    12   1 H    0.996 --     5 C    0.972
    13   1 H    0.995 --     6 C    0.963
    14   1 H    0.996 --     6 C    0.940
    15   1 H    0.996 --     7 C    0.978
    16   1 H    0.999 --     7 C    0.980
 ---------------------------------------------------------------------------

molecular dipole:
                 x           y           z       tot (Debye)
 q only:       -1.391       0.095      -0.309
   full:       -1.377       0.017      -0.171       3.528

           -------------------------------------------------
          | TOTAL ENERGY              -23.240308697077 Eh   |
          | GRADIENT NORM               0.000678170539 Eh/α |
          | HOMO-LUMO GAP               2.162602869375 eV   |
           -------------------------------------------------

 * finished run on 2025/05/23 at 13:10:40.605
