   * xtb version 6.6.1 (8d0f1dd) compiled by 'conda@1efc2f54142f' on 2023-08-01
          program call               : /gpfs/fs1/home/copan/code/autode-practice/.pixi/envs/default/bin/xtb path_opt1_xtb.xyz --chrg 0 --uhf 1 --opt --input xcontrol_path_opt1_xtb

   ID    Z sym.   atoms
    1    8 O      1, 2
    2    6 C      3-7
    3    1 H      8-16
constraining bond 2 5 to    2.5550000 Å, actual value:    2.8377695 Å
constraining bond 1 2 to    1.6578000 Å, actual value:    1.6072103 Å

          :  Hamiltonian                  GFN2-xTB          :
 * total energy  :   -22.6721994 Eh     change       -0.5255316E-09 Eh
 * total energy  :   -23.1305992 Eh     change       -0.4583998E+00 Eh
 * total energy  :   -23.2387921 Eh     change       -0.1081929E+00 Eh
 * total energy  :   -23.2446765 Eh     change       -0.5884393E-02 Eh
 * total energy  :   -23.2469455 Eh     change       -0.2268951E-02 Eh
 * total energy  :   -23.2478005 Eh     change       -0.8549946E-03 Eh
 * total energy  :   -23.2482962 Eh     change       -0.4957093E-03 Eh
 * total energy  :   -23.2486595 Eh     change       -0.3633377E-03 Eh
 * total energy  :   -23.2488215 Eh     change       -0.1620180E-03 Eh
 * total energy  :   -23.2489419 Eh     change       -0.1203850E-03 Eh
 * total energy  :   -23.2495417 Eh     change       -0.9732814E-05 Eh
 * total energy  :   -23.2495546 Eh     change       -0.1289224E-04 Eh
 * total energy  :   -23.2495639 Eh     change       -0.9259772E-05 Eh
 * total energy  :   -23.2495717 Eh     change       -0.7855399E-05 Eh
 * total energy  :   -23.2495782 Eh     change       -0.6476538E-05 Eh
 * total energy  :   -23.2495834 Eh     change       -0.5232849E-05 Eh
 * total energy  :   -23.2495868 Eh     change       -0.3362543E-05 Eh
 * total energy  :   -23.2495886 Eh     change       -0.1845721E-05 Eh
 * total energy  :   -23.2495896 Eh     change       -0.9305221E-06 Eh
   *** GEOMETRY OPTIMIZATION CONVERGED AFTER 29 ITERATIONS ***

 final structure:
================
16
 xtb: 6.6.1 (8d0f1dd)
O            2.28943753487788       -1.28070588475098        0.96957728245279
O            1.35804280683428        0.02431596068188        0.58328421096396
C            0.68572492883307       -0.23498055211222       -0.58987285905810
C           -0.46630350628173       -1.18036857710172       -0.23884020525804
C           -1.18013273593886       -0.27183964039763        0.67717010427435
C           -1.10058859145734        1.13786578258641        0.22925081232834
C           -0.02631180792488        1.10264728522173       -0.86660964548579
H            2.67846162903178       -0.92417917599868        1.77303555370642
H            1.35773818269936       -0.55366297436235       -1.39462425611747
H           -0.10778086898630       -2.08936945507182        0.24262144101318
H           -1.04651751631715       -1.45487285635847       -1.12925402358300
H           -1.77133672959710       -0.59085337818312        1.51407745078824
H           -0.81714222249154        1.80144250585091        1.05169380469788
H           -2.06083678601428        1.50694362544628       -0.15431874768489
H            0.66987693717421        1.93597472822751       -0.80300961462941
H           -0.46206125444140        1.07182260632225       -1.86421130840853

          :  Hamiltonian                  GFN2-xTB          :
         :: total energy             -23.249589577821 Eh    ::
         :: gradient norm              0.000547222637 Eh/a0 ::
         :: HOMO-LUMO gap              0.723788737932 eV    ::
         :: SCC energy               -23.487106912658 Eh    ::
         :: -> dispersion             -0.009916321610 Eh    ::
         :: repulsion energy           0.236927775498 Eh    ::

    * Orbital Energies and Occupations

         #    Occupation            Energy/Eh            Energy/eV
      -------------------------------------------------------------
         1        2.0000           -0.6966919             -18.9580
       ...           ...                  ...                  ...
         9        2.0000           -0.5490952             -14.9416
        10        2.0000           -0.5365654             -14.6007
        11        2.0000           -0.5204981             -14.1635
        12        2.0000           -0.5069706             -13.7954
        13        2.0000           -0.5004648             -13.6183
        14        2.0000           -0.4709873             -12.8162
        15        2.0000           -0.4595207             -12.5042
        16        2.0000           -0.4567156             -12.4279
        17        2.0000           -0.4515421             -12.2871
        18        2.0000           -0.4497136             -12.2373
        19        2.0000           -0.4438141             -12.0768
        20        2.0000           -0.4077805             -11.0963
        21        1.0000           -0.3003051              -8.1717 (HOMO)
        22        0.0000           -0.2737063              -7.4479 (LUMO)
        23                          0.0585580               1.5934
        24                          0.0668673               1.8196
        25                          0.0980471               2.6680
        26                          0.1120316               3.0485
        27                          0.1274583               3.4683
        28                          0.1350907               3.6760
        29                          0.1506425               4.0992
        30                          0.1646878               4.4814
        31                          0.1857776               5.0553
        32                          0.2032544               5.5308
       ...                                ...                  ...
        37                          0.3933798              10.7044
      -------------------------------------------------------------
                  HL-Gap            0.0265987 Eh            0.7238 eV

     #   Z          covCN         q      C6AA      α(0)
     1   8 O        1.371    -0.375    20.709     6.125
     2   8 O        1.425    -0.228    18.009     5.717
     3   6 C        3.828     0.135    18.380     6.100
     4   6 C        3.826    -0.063    21.690     6.627
     5   6 C        2.994    -0.051    29.243     8.871
     6   6 C        3.825    -0.053    21.513     6.600
     7   6 C        3.842    -0.059    21.596     6.611
     8   1 H        0.805     0.311     0.690     1.305
     9   1 H        0.924     0.032     2.564     2.504
    10   1 H        0.925     0.065     2.142     2.289
    11   1 H        0.924     0.046     2.377     2.411
    12   1 H        0.926     0.034     2.534     2.489
    13   1 H        0.924     0.058     2.220     2.330
    14   1 H        0.923     0.050     2.326     2.385
    15   1 H        0.925     0.052     2.290     2.366
    16   1 H        0.925     0.047     2.362     2.403

Wiberg/Mayer (AO) data.
largest (>0.10) Wiberg bond orders for each atom

     #   Z sym  total        # sym  WBO       # sym  WBO       # sym  WBO
 ---------------------------------------------------------------------------
     1   8 O    1.901 --     8 H    0.901     2 O    0.873
     2   8 O    2.023 --     3 C    1.029     1 O    0.873
     3   6 C    3.947 --     2 O    1.029     4 C    0.967     9 H    0.956
                             7 C    0.940
     4   6 C    3.996 --     5 C    1.074     3 C    0.967    10 H    0.962
                            11 H    0.936
     5   6 C    3.355 --     6 C    1.074     4 C    1.074    12 H    0.976
     6   6 C    3.998 --     5 C    1.074     7 C    1.002    13 H    0.951
                            14 H    0.941
     7   6 C    3.993 --     6 C    1.002    15 H    0.978    16 H    0.973
                             3 C    0.940
     8   1 H    0.904 --     1 O    0.901
     9   1 H    0.999 --     3 C    0.956
    10   1 H    0.996 --     4 C    0.962
    11   1 H    0.996 --     4 C    0.936
    12   1 H    0.999 --     5 C    0.976
    13   1 H    0.996 --     6 C    0.951
    14   1 H    0.996 --     6 C    0.941
    15   1 H    0.997 --     7 C    0.978
    16   1 H    0.998 --     7 C    0.973
 ---------------------------------------------------------------------------

molecular dipole:
                 x           y           z       tot (Debye)
 q only:       -0.569       0.398      -0.208
   full:       -0.483       0.443      -0.189       1.733

           -------------------------------------------------
          | TOTAL ENERGY              -23.249589577821 Eh   |
          | GRADIENT NORM               0.000547222637 Eh/α |
          | HOMO-LUMO GAP               0.723788737932 eV   |
           -------------------------------------------------

 * finished run on 2025/05/23 at 13:10:39.649
