   * xtb version 6.6.1 (8d0f1dd) compiled by 'conda@1efc2f54142f' on 2023-08-01
          program call               : /gpfs/fs1/home/copan/code/autode-practice/.pixi/envs/default/bin/xtb path_opt0_xtb.xyz --chrg 0 --uhf 1 --opt --input xcontrol_path_opt0_xtb

   ID    Z sym.   atoms
    1    8 O      1, 2
    2    6 C      3-7
    3    1 H      8-16
constraining bond 2 5 to    2.8368000 Å, actual value:    3.0371114 Å
constraining bond 1 2 to    1.6159000 Å, actual value:    1.4164187 Å

          :  Hamiltonian                  GFN2-xTB          :
 * total energy  :   -22.7054581 Eh     change       -0.5001510E-10 Eh
 * total energy  :   -23.1054731 Eh     change       -0.4000149E+00 Eh
 * total energy  :   -23.2546484 Eh     change       -0.1491753E+00 Eh
 * total energy  :   -23.2493440 Eh     change        0.5304395E-02 Eh
 * total energy  :   -23.2524091 Eh     change       -0.3065102E-02 Eh
 * total energy  :   -23.2574431 Eh     change       -0.5033997E-02 Eh
 * total energy  :   -23.2577676 Eh     change       -0.3245308E-03 Eh
 * total energy  :   -23.2581585 Eh     change       -0.3909044E-03 Eh
 * total energy  :   -23.2583294 Eh     change       -0.1708787E-03 Eh
 * total energy  :   -23.2585705 Eh     change       -0.2410878E-03 Eh
 * total energy  :   -23.2608774 Eh     change       -0.3192747E-04 Eh
 * total energy  :   -23.2609039 Eh     change       -0.2645353E-04 Eh
 * total energy  :   -23.2609229 Eh     change       -0.1902260E-04 Eh
 * total energy  :   -23.2609302 Eh     change       -0.7278009E-05 Eh
 * total energy  :   -23.2609567 Eh     change       -0.2648710E-04 Eh
 * total energy  :   -23.2609752 Eh     change       -0.1857077E-04 Eh
 * total energy  :   -23.2609973 Eh     change       -0.2205360E-04 Eh
 * total energy  :   -23.2610038 Eh     change       -0.6484860E-05 Eh
 * total energy  :   -23.2610069 Eh     change       -0.3102904E-05 Eh
   *** GEOMETRY OPTIMIZATION CONVERGED AFTER 42 ITERATIONS ***

 final structure:
================
16
 xtb: 6.6.1 (8d0f1dd)
O            2.30879238043352       -1.28309702697378        0.93432746719562
O            1.48301998509326        0.03604056757729        0.53296431387986
C            0.68575159370794       -0.23808833950548       -0.56207232406232
C           -0.45868114335163       -1.18060682609318       -0.17338741416282
C           -1.33715990731708       -0.27434089784795        0.58938302371118
C           -1.12646678390836        1.14718120075888        0.23227414458932
C           -0.01712841039880        1.10561263558441       -0.82523232789165
H            2.84732669330923       -0.90157456607612        1.63410079199369
H            1.28688847034498       -0.58536980247019       -1.41208017094200
H           -0.09397612037528       -2.02607793411301        0.41256491876930
H           -0.93834810891147       -1.58110956909618       -1.07781066172418
H           -2.04334506940651       -0.59822095218678        1.32822966328908
H           -0.81293254410585        1.73091781793280        1.10638433228882
H           -2.03692602429434        1.62484026453368       -0.14938201019783
H            0.68346614925913        1.93345051563877       -0.73728590633900
H           -0.43000116007876        1.09063291233666       -1.83298784039696

          :  Hamiltonian                  GFN2-xTB          :
         :: total energy             -23.261006872321 Eh    ::
         :: gradient norm              0.000975705019 Eh/a0 ::
         :: HOMO-LUMO gap              0.857597116045 eV    ::
         :: SCC energy               -23.497412652071 Eh    ::
         :: -> dispersion             -0.009839399050 Eh    ::
         :: repulsion energy           0.235831972155 Eh    ::

    * Orbital Energies and Occupations

         #    Occupation            Energy/Eh            Energy/eV
      -------------------------------------------------------------
         1        2.0000           -0.7012935             -19.0832
       ...           ...                  ...                  ...
         9        2.0000           -0.5498357             -14.9618
        10        2.0000           -0.5376774             -14.6309
        11        2.0000           -0.5190750             -14.1247
        12        2.0000           -0.5055292             -13.7562
        13        2.0000           -0.5032179             -13.6933
        14        2.0000           -0.4723448             -12.8532
        15        2.0000           -0.4601576             -12.5215
        16        2.0000           -0.4528826             -12.3236
        17        2.0000           -0.4518954             -12.2967
        18        2.0000           -0.4484961             -12.2042
        19        2.0000           -0.4450351             -12.1100
        20        2.0000           -0.4097127             -11.1489
        21        1.0000           -0.2929649              -7.9720 (HOMO)
        22                         -0.2614488              -7.1144 (LUMO)
        23                          0.0583596               1.5880
        24                          0.0697436               1.8978
        25                          0.1011380               2.7521
        26                          0.1120753               3.0497
        27                          0.1266494               3.4463
        28                          0.1337287               3.6389
        29                          0.1510878               4.1113
        30                          0.1591122               4.3297
        31                          0.1862500               5.0681
        32                          0.2120688               5.7707
       ...                                ...                  ...
        37                          0.3966426              10.7932
      -------------------------------------------------------------
                  HL-Gap            0.0315161 Eh            0.8576 eV

     #   Z          covCN         q      C6AA      α(0)
     1   8 O        1.470    -0.360    20.259     6.067
     2   8 O        1.521    -0.217    17.714     5.677
     3   6 C        3.778     0.133    18.452     6.120
     4   6 C        3.822    -0.062    21.669     6.624
     5   6 C        2.945    -0.068    29.703     8.939
     6   6 C        3.821    -0.052    21.494     6.598
     7   6 C        3.837    -0.059    21.598     6.612
     8   1 H        0.805     0.314     0.679     1.294
     9   1 H        0.924     0.028     2.613     2.528
    10   1 H        0.924     0.066     2.128     2.281
    11   1 H        0.923     0.045     2.379     2.412
    12   1 H        0.926     0.029     2.601     2.522
    13   1 H        0.924     0.057     2.240     2.341
    14   1 H        0.924     0.046     2.367     2.406
    15   1 H        0.925     0.052     2.296     2.370
    16   1 H        0.925     0.048     2.351     2.398

Wiberg/Mayer (AO) data.
largest (>0.10) Wiberg bond orders for each atom

     #   Z sym  total        # sym  WBO       # sym  WBO       # sym  WBO
 ---------------------------------------------------------------------------
     1   8 O    1.901 --     2 O    0.913     8 H    0.898
     2   8 O    2.018 --     3 C    1.018     1 O    0.913
     3   6 C    3.944 --     2 O    1.018     4 C    0.972     9 H    0.958
                             7 C    0.945
     4   6 C    3.996 --     5 C    1.077     3 C    0.972    10 H    0.955
                            11 H    0.935
     5   6 C    3.300 --     4 C    1.077     6 C    1.074    12 H    0.976
     6   6 C    3.997 --     5 C    1.074     7 C    1.003    14 H    0.947
                            13 H    0.944
     7   6 C    3.993 --     6 C    1.003    15 H    0.977    16 H    0.973
                             3 C    0.945
     8   1 H    0.901 --     1 O    0.898
     9   1 H    0.999 --     3 C    0.958
    10   1 H    0.995 --     4 C    0.955
    11   1 H    0.996 --     4 C    0.935
    12   1 H    0.999 --     5 C    0.976
    13   1 H    0.995 --     6 C    0.944
    14   1 H    0.995 --     6 C    0.947
    15   1 H    0.997 --     7 C    0.977
    16   1 H    0.998 --     7 C    0.973
 ---------------------------------------------------------------------------

molecular dipole:
                 x           y           z       tot (Debye)
 q only:       -0.349       0.363      -0.187
   full:       -0.212       0.406      -0.172       1.243

           -------------------------------------------------
          | TOTAL ENERGY              -23.261006872321 Eh   |
          | GRADIENT NORM               0.000975705019 Eh/α |
          | HOMO-LUMO GAP               0.857597116045 eV   |
           -------------------------------------------------

 * finished run on 2025/05/23 at 13:10:39.254
