   * xtb version 6.6.1 (8d0f1dd) compiled by 'conda@1efc2f54142f' on 2023-08-01
          program call               : /gpfs/fs1/home/copan/code/autode-practice/.pixi/envs/default/bin/xtb path_opt2_xtb.xyz --chrg 0 --uhf 1 --opt --input xcontrol_path_opt2_xtb

   ID    Z sym.   atoms
    1    8 O      1, 2
    2    6 C      3-7
    3    1 H      8-16
constraining bond 2 5 to    2.3344000 Å, actual value:    2.5571144 Å
constraining bond 1 2 to    1.6998000 Å, actual value:    1.6491930 Å

          :  Hamiltonian                  GFN2-xTB          :
 * total energy  :   -22.8775973 Eh     change       -0.8830803E-09 Eh
 * total energy  :   -23.1199485 Eh     change       -0.2423513E+00 Eh
 * total energy  :   -23.2315006 Eh     change       -0.1115520E+00 Eh
 * total energy  :   -23.2333155 Eh     change       -0.1814957E-02 Eh
 * total energy  :   -23.2355372 Eh     change       -0.2221619E-02 Eh
 * total energy  :   -23.2360875 Eh     change       -0.5503824E-03 Eh
 * total energy  :   -23.2367872 Eh     change       -0.6996577E-03 Eh
 * total energy  :   -23.2370434 Eh     change       -0.2562045E-03 Eh
 * total energy  :   -23.2374031 Eh     change       -0.3596579E-03 Eh
 * total energy  :   -23.2375079 Eh     change       -0.1048755E-03 Eh
 * total energy  :   -23.2428884 Eh     change       -0.5129235E-04 Eh
 * total energy  :   -23.2429138 Eh     change       -0.2535379E-04 Eh
 * total energy  :   -23.2429364 Eh     change       -0.2260943E-04 Eh
 * total energy  :   -23.2429570 Eh     change       -0.2067913E-04 Eh
 * total energy  :   -23.2429641 Eh     change       -0.7015020E-05 Eh
 * total energy  :   -23.2429757 Eh     change       -0.1168048E-04 Eh
 * total energy  :   -23.2429753 Eh     change        0.3993687E-06 Eh
 * total energy  :   -23.2429774 Eh     change       -0.2051005E-05 Eh
 * total energy  :   -23.2429780 Eh     change       -0.6217826E-06 Eh
   *** GEOMETRY OPTIMIZATION CONVERGED AFTER 60 ITERATIONS ***

 final structure:
================
16
 xtb: 6.6.1 (8d0f1dd)
O            2.70863903885007       -0.23923748420802        0.77126474254188
O            1.04599313967165       -0.55250848257460        0.77844797478154
C            0.59188607569002       -0.45762491384740       -0.53735990501826
C           -0.71652756436670       -1.23455820823570       -0.36343328190442
C           -1.27166096557010       -0.30150085851098        0.65011019340017
C           -0.99625665037065        1.10561797462470        0.27057924969024
C            0.11340324622726        0.97680442862591       -0.78999840001836
H            2.86215276432924       -0.40099421046267        1.70489991628579
H            1.32095176181643       -0.84584960336200       -1.25188484376209
H           -0.55481428397490       -2.24249407767338        0.01228725053220
H           -1.30480910316583       -1.27940196241905       -1.28936318730492
H           -1.88865908763011       -0.58942035347434        1.47960710778572
H           -0.67008397139798        1.69093792432404        1.13356466500177
H           -1.89014438175478        1.60155678102270       -0.12766531945383
H            0.92141361826326        1.68815974321241       -0.63726274542959
H           -0.27121363661676        1.08069330295879       -1.80381341712788

          :  Hamiltonian                  GFN2-xTB          :
         :: total energy             -23.242978008786 Eh    ::
         :: gradient norm              0.000183554101 Eh/a0 ::
         :: HOMO-LUMO gap              1.118079056438 eV    ::
         :: SCC energy               -23.478749912310 Eh    ::
         :: -> dispersion             -0.009864874775 Eh    ::
         :: repulsion energy           0.235298567383 Eh    ::

    * Orbital Energies and Occupations

         #    Occupation            Energy/Eh            Energy/eV
      -------------------------------------------------------------
         1        2.0000           -0.6901862             -18.7809
       ...           ...                  ...                  ...
         9        2.0000           -0.5420524             -14.7500
        10        2.0000           -0.5340347             -14.5318
        11        2.0000           -0.5203147             -14.1585
        12        2.0000           -0.5031736             -13.6920
        13        2.0000           -0.4941158             -13.4456
        14        2.0000           -0.4765213             -12.9668
        15        2.0000           -0.4649067             -12.6508
        16        2.0000           -0.4575452             -12.4504
        17        2.0000           -0.4546770             -12.3724
        18        2.0000           -0.4472074             -12.1691
        19        2.0000           -0.4409275             -11.9982
        20        2.0000           -0.4058668             -11.0442
        21        1.0000           -0.3159807              -8.5983 (HOMO)
        22                         -0.2748920              -7.4802 (LUMO)
        23                          0.0501573               1.3648
        24                          0.0688754               1.8742
        25                          0.0766783               2.0865
        26                          0.0998417               2.7168
        27                          0.1205013               3.2790
        28                          0.1342151               3.6522
        29                          0.1490998               4.0572
        30                          0.1760931               4.7917
        31                          0.1788751               4.8674
        32                          0.1937535               5.2723
       ...                                ...                  ...
        37                          0.3803501              10.3499
      -------------------------------------------------------------
                  HL-Gap            0.0410886 Eh            1.1181 eV

     #   Z          covCN         q      C6AA      α(0)
     1   8 O        1.266    -0.400    21.373     6.213
     2   8 O        1.329    -0.248    18.502     5.786
     3   6 C        3.873     0.133    18.387     6.097
     4   6 C        3.841    -0.055    21.523     6.600
     5   6 C        3.032    -0.026    28.619     8.775
     6   6 C        3.833    -0.054    21.510     6.599
     7   6 C        3.839    -0.071    21.820     6.645
     8   1 H        0.805     0.302     0.716     1.329
     9   1 H        0.924     0.044     2.399     2.422
    10   1 H        0.925     0.060     2.193     2.316
    11   1 H        0.923     0.055     2.260     2.351
    12   1 H        0.926     0.045     2.382     2.413
    13   1 H        0.924     0.065     2.138     2.287
    14   1 H        0.924     0.055     2.257     2.350
    15   1 H        0.925     0.057     2.229     2.335
    16   1 H        0.925     0.035     2.515     2.480

Wiberg/Mayer (AO) data.
largest (>0.10) Wiberg bond orders for each atom

     #   Z sym  total        # sym  WBO       # sym  WBO       # sym  WBO
 ---------------------------------------------------------------------------
     1   8 O    1.897 --     8 H    0.906     2 O    0.809     5 C    0.111
     2   8 O    2.041 --     3 C    1.006     1 O    0.809     5 C    0.143
     3   6 C    3.948 --     2 O    1.006     7 C    0.985     9 H    0.955
                             4 C    0.946
     4   6 C    3.992 --     5 C    1.059    10 H    0.968     3 C    0.946
                            11 H    0.934
     5   6 C    3.518 --     6 C    1.079     4 C    1.059    12 H    0.975
                             2 O    0.143     1 O    0.111
     6   6 C    3.998 --     5 C    1.079     7 C    0.999    13 H    0.951
                            14 H    0.936
     7   6 C    3.996 --     6 C    0.999     3 C    0.985    16 H    0.980
                            15 H    0.978
     8   1 H    0.909 --     1 O    0.906
     9   1 H    0.998 --     3 C    0.955
    10   1 H    0.996 --     4 C    0.968
    11   1 H    0.994 --     4 C    0.934
    12   1 H    0.998 --     5 C    0.975
    13   1 H    0.995 --     6 C    0.951
    14   1 H    0.995 --     6 C    0.936
    15   1 H    0.997 --     7 C    0.978
    16   1 H    0.999 --     7 C    0.980
 ---------------------------------------------------------------------------

molecular dipole:
                 x           y           z       tot (Debye)
 q only:       -0.980       0.116      -0.198
   full:       -0.952       0.065      -0.110       2.441

           -------------------------------------------------
          | TOTAL ENERGY              -23.242978008786 Eh   |
          | GRADIENT NORM               0.000183554101 Eh/α |
          | HOMO-LUMO GAP               1.118079056438 eV   |
           -------------------------------------------------

 * finished run on 2025/05/23 at 13:10:40.245
