   * xtb version 6.6.1 (8d0f1dd) compiled by 'conda@1efc2f54142f' on 2023-08-01
          program call               : /gpfs/fs1/home/copan/code/autode-practice/.pixi/envs/default/bin/xtb path_opt4_xtb.xyz --chrg 0 --uhf 1 --opt --input xcontrol_path_opt4_xtb

   ID    Z sym.   atoms
    1    8 O      1, 2
    2    6 C      3-7
    3    1 H      8-16
constraining bond 2 5 to    1.7359000 Å, actual value:    2.0359171 Å
constraining bond 1 2 to    1.8256000 Å, actual value:    1.7386871 Å

          :  Hamiltonian                  GFN2-xTB          :
 * total energy  :   -22.5436687 Eh     change       -0.7746017E-09 Eh
 * total energy  :   -22.9751985 Eh     change       -0.4315299E+00 Eh
 * total energy  :   -23.2430163 Eh     change       -0.2678177E+00 Eh
 * total energy  :   -23.2459387 Eh     change       -0.2922409E-02 Eh
 * total energy  :   -23.2470486 Eh     change       -0.1109909E-02 Eh
 * total energy  :   -23.2457267 Eh     change        0.1321853E-02 Eh
 * total energy  :   -23.2489362 Eh     change       -0.3209498E-02 Eh
 * total energy  :   -23.2493798 Eh     change       -0.4435805E-03 Eh
 * total energy  :   -23.2496509 Eh     change       -0.2711112E-03 Eh
 * total energy  :   -23.2499579 Eh     change       -0.3069669E-03 Eh
 * total energy  :   -23.2504840 Eh     change       -0.9218343E-05 Eh
 * total energy  :   -23.2505008 Eh     change       -0.1680524E-04 Eh
 * total energy  :   -23.2505072 Eh     change       -0.6392997E-05 Eh
 * total energy  :   -23.2505425 Eh     change       -0.3526869E-04 Eh
 * total energy  :   -23.2505559 Eh     change       -0.1343620E-04 Eh
 * total energy  :   -23.2505656 Eh     change       -0.9660034E-05 Eh
 * total energy  :   -23.2505724 Eh     change       -0.6802644E-05 Eh
 * total energy  :   -23.2505774 Eh     change       -0.5054911E-05 Eh
 * total energy  :   -23.2505794 Eh     change       -0.1983155E-05 Eh
   *** GEOMETRY OPTIMIZATION CONVERGED AFTER 27 ITERATIONS ***

 final structure:
================
16
 xtb: 6.6.1 (8d0f1dd)
O            2.48476937625397        0.04826656061817        0.98333469571984
O            0.79611606030590       -0.61007771356923        0.76106701149879
C            0.55020605961684       -0.51494274742571       -0.63690538492996
C           -0.80052760594971       -1.21966922841687       -0.47636042818904
C           -0.91564811179864       -0.35256230174652        0.76356427846746
C           -0.90936006350690        1.07067283829568        0.26582160144029
C            0.15052554899196        0.95018362376674       -0.85432737227252
H            2.65165783743661       -0.33329224467737        1.84529879499444
H            1.36098060857043       -0.91055919737883       -1.24158521883008
H           -0.70068754960250       -2.27788523132858       -0.25475509020269
H           -1.54833268358604       -1.04538516543349       -1.24931947927113
H           -1.37251465277272       -0.64994720834941        1.69370672580527
H           -0.61238464913942        1.76907650941697        1.04505520998848
H           -1.89129674158376        1.35729754565932       -0.11311127603788
H            1.00582078540630        1.59750669262151       -0.68010266145484
H           -0.24903421864248        1.12149726794747       -1.85141140672632

          :  Hamiltonian                  GFN2-xTB          :
         :: total energy             -23.250579397549 Eh    ::
         :: gradient norm              0.000661324078 Eh/a0 ::
         :: HOMO-LUMO gap              3.715067878972 eV    ::
         :: SCC energy               -23.481722167884 Eh    ::
         :: -> dispersion             -0.009709273310 Eh    ::
         :: repulsion energy           0.230946448732 Eh    ::

    * Orbital Energies and Occupations

         #    Occupation            Energy/Eh            Energy/eV
      -------------------------------------------------------------
         1        2.0000           -0.7063595             -19.2210
       ...           ...                  ...                  ...
         9        2.0000           -0.5482848             -14.9196
        10        2.0000           -0.5386395             -14.6571
        11        2.0000           -0.5321437             -14.4804
        12        2.0000           -0.4877769             -13.2731
        13        2.0000           -0.4794453             -13.0464
        14        2.0000           -0.4782916             -13.0150
        15        2.0000           -0.4753081             -12.9338
        16        2.0000           -0.4702505             -12.7962
        17        2.0000           -0.4584332             -12.4746
        18        2.0000           -0.4448643             -12.1054
        19        2.0000           -0.4337843             -11.8039
        20        2.0000           -0.3936047             -10.7105
        21        1.0000           -0.3326050              -9.0506 (HOMO)
        22                         -0.1960788              -5.3356 (LUMO)
        23                          0.0068715               0.1870
        24                          0.0240153               0.6535
        25                          0.0540078               1.4696
        26                          0.0744247               2.0252
        27                          0.0957514               2.6055
        28                          0.1206971               3.2843
        29                          0.1271617               3.4602
        30                          0.1523081               4.1445
        31                          0.1835185               4.9938
        32                          0.1988153               5.4100
       ...                                ...                  ...
        37                          0.3375289               9.1846
      -------------------------------------------------------------
                  HL-Gap            0.1365262 Eh            3.7151 eV

     #   Z          covCN         q      C6AA      α(0)
     1   8 O        0.981    -0.505    23.826     6.547
     2   8 O        1.706    -0.234    17.873     5.708
     3   6 C        4.179     0.127    18.437     6.098
     4   6 C        3.882    -0.065    21.696     6.622
     5   6 C        3.965     0.065    19.419     6.261
     6   6 C        3.850    -0.058    21.587     6.609
     7   6 C        3.853    -0.069    21.782     6.638
     8   1 H        0.806     0.270     0.820     1.422
     9   1 H        0.925     0.055     2.262     2.352
    10   1 H        0.925     0.060     2.193     2.316
    11   1 H        0.925     0.053     2.285     2.364
    12   1 H        0.926     0.067     2.122     2.278
    13   1 H        0.925     0.065     2.141     2.288
    14   1 H        0.924     0.052     2.292     2.368
    15   1 H        0.925     0.076     2.018     2.221
    16   1 H        0.925     0.040     2.443     2.444

Wiberg/Mayer (AO) data.
largest (>0.10) Wiberg bond orders for each atom

     #   Z sym  total        # sym  WBO       # sym  WBO       # sym  WBO
 ---------------------------------------------------------------------------
     1   8 O    1.578 --     8 H    0.925     2 O    0.454     5 C    0.127
     2   8 O    2.245 --     3 C    0.977     5 C    0.723     1 O    0.454
     3   6 C    3.939 --     7 C    0.984     2 O    0.977     4 C    0.968
                             9 H    0.964
     4   6 C    3.983 --     5 C    1.001    10 H    0.976     3 C    0.968
                            11 H    0.962
     5   6 C    3.901 --     6 C    1.026     4 C    1.001    12 H    0.969
                             2 O    0.723     1 O    0.127
     6   6 C    3.993 --     5 C    1.026     7 C    0.996    13 H    0.974
                            14 H    0.963
     7   6 C    3.992 --     6 C    0.996     3 C    0.984    16 H    0.980
                            15 H    0.976
     8   1 H    0.927 --     1 O    0.925
     9   1 H    0.997 --     3 C    0.964
    10   1 H    0.996 --     4 C    0.976
    11   1 H    0.997 --     4 C    0.962
    12   1 H    0.996 --     5 C    0.969
    13   1 H    0.996 --     6 C    0.974
    14   1 H    0.997 --     6 C    0.963
    15   1 H    0.994 --     7 C    0.976
    16   1 H    0.998 --     7 C    0.980
 ---------------------------------------------------------------------------

molecular dipole:
                 x           y           z       tot (Debye)
 q only:       -1.576      -0.079      -0.443
   full:       -1.564      -0.215      -0.239       4.059

           -------------------------------------------------
          | TOTAL ENERGY              -23.250579397549 Eh   |
          | GRADIENT NORM               0.000661324078 Eh/α |
          | HOMO-LUMO GAP               3.715067878972 eV   |
           -------------------------------------------------

 * finished run on 2025/05/23 at 13:10:40.992
