   * xtb version 6.6.1 (8d0f1dd) compiled by 'conda@1efc2f54142f' on 2023-08-01
          program call               : /gpfs/fs1/home/copan/code/autode-practice/.pixi/envs/default/bin/xtb path_opt-1_xtb.xyz --chrg 0 --uhf 1 --opt --input xcontrol_path_opt-1_xtb

   ID    Z sym.   atoms
    1    8 O      1, 2
    2    6 C      3-7
    3    1 H      8-16
constraining bond 2 5 to    3.0368000 Å, actual value:    3.0367860 Å
constraining bond 1 2 to    1.4159000 Å, actual value:    1.4159213 Å

          :  Hamiltonian                  GFN2-xTB          :
 * total energy  :   -23.2742143 Eh     change       -0.4871481E-10 Eh
 * total energy  :   -23.2758312 Eh     change       -0.1616880E-02 Eh
 * total energy  :   -23.2760286 Eh     change       -0.1974476E-03 Eh
 * total energy  :   -23.2760754 Eh     change       -0.4679582E-04 Eh
 * total energy  :   -23.2761156 Eh     change       -0.4012518E-04 Eh
 * total energy  :   -23.2761373 Eh     change       -0.2174778E-04 Eh
 * total energy  :   -23.2761588 Eh     change       -0.2147883E-04 Eh
 * total energy  :   -23.2761716 Eh     change       -0.1284647E-04 Eh
 * total energy  :   -23.2761819 Eh     change       -0.1021898E-04 Eh
 * total energy  :   -23.2761911 Eh     change       -0.9200777E-05 Eh
 * total energy  :   -23.2761983 Eh     change       -0.7215605E-05 Eh
 * total energy  :   -23.2762019 Eh     change       -0.3625360E-05 Eh
 * total energy  :   -23.2762117 Eh     change       -0.9764077E-05 Eh
 * total energy  :   -23.2762239 Eh     change       -0.1224149E-04 Eh
 * total energy  :   -23.2762322 Eh     change       -0.8299491E-05 Eh
 * total energy  :   -23.2762360 Eh     change       -0.3821221E-05 Eh
   *** GEOMETRY OPTIMIZATION CONVERGED AFTER 16 ITERATIONS ***

 final structure:
================
16
 xtb: 6.6.1 (8d0f1dd)
O            2.22091361030868       -1.18223643447712        1.00930202102915
O            1.52744066343752       -0.00207260428128        0.64523502477400
C            0.68725886898984       -0.24343065374896       -0.46435698408008
C           -0.47006576115771       -1.18261911093449       -0.09764264598021
C           -1.49195852655091       -0.27014899093754        0.45708923069676
C           -1.16317679509489        1.15225863828416        0.21545577030562
C            0.01687840184203        1.10056269911192       -0.76072135483897
H            3.14347435640048       -0.89461096567310        1.05120974730199
H            1.28930252769829       -0.61988010856643       -1.30307870419020
H           -0.13995247624940       -1.94244070598501        0.61690970494489
H           -0.82296548282325       -1.71364591652352       -0.99274218241732
H           -2.30932752296099       -0.59429656361723        1.07037927889897
H           -0.86086479379534        1.64802489166553        1.14843452477198
H           -2.00895053476531        1.72260254320513       -0.18260698583110
H            0.71728599769779        1.92142986103173       -0.62117020376093
H           -0.33500253297682        1.10071342144622       -1.79170624162454

          :  Hamiltonian                  GFN2-xTB          :
         :: total energy             -23.276236026705 Eh    ::
         :: gradient norm              0.000930154797 Eh/a0 ::
         :: HOMO-LUMO gap              4.147035771714 eV    ::
         :: SCC energy               -23.509861491654 Eh    ::
         :: -> dispersion             -0.009861757978 Eh    ::
         :: repulsion energy           0.233597512867 Eh    ::

    * Orbital Energies and Occupations

         #    Occupation            Energy/Eh            Energy/eV
      -------------------------------------------------------------
         1        2.0000           -0.7163364             -19.4925
       ...           ...                  ...                  ...
         9        2.0000           -0.5449059             -14.8276
        10        2.0000           -0.5390760             -14.6690
        11        2.0000           -0.5213298             -14.1861
        12        2.0000           -0.5050782             -13.7439
        13        2.0000           -0.4938836             -13.4393
        14        2.0000           -0.4671072             -12.7106
        15        2.0000           -0.4574617             -12.4482
        16        2.0000           -0.4506064             -12.2616
        17        2.0000           -0.4462244             -12.1424
        18        2.0000           -0.4442741             -12.0893
        19        2.0000           -0.4411664             -12.0047
        20        2.0000           -0.4062661             -11.0551
        21        1.0000           -0.2883746              -7.8471 (HOMO)
        22                         -0.1359739              -3.7000 (LUMO)
        23                          0.0548743               1.4932
        24                          0.0716243               1.9490
        25                          0.1013892               2.7589
        26                          0.1086995               2.9579
        27                          0.1195924               3.2543
        28                          0.1296030               3.5267
        29                          0.1451825               3.9506
        30                          0.1599727               4.3531
        31                          0.1852460               5.0408
        32                          0.2150737               5.8525
       ...                                ...                  ...
        37                          0.3969979              10.8029
      -------------------------------------------------------------
                  HL-Gap            0.1524008 Eh            4.1470 eV

     #   Z          covCN         q      C6AA      α(0)
     1   8 O        1.741    -0.327    19.455     5.956
     2   8 O        1.785    -0.212    17.500     5.649
     3   6 C        3.763     0.125    18.584     6.145
     4   6 C        3.819    -0.061    21.654     6.622
     5   6 C        2.931    -0.074    29.852     8.960
     6   6 C        3.821    -0.052    21.496     6.598
     7   6 C        3.835    -0.065    21.717     6.630
     8   1 H        0.805     0.313     0.684     1.299
     9   1 H        0.923     0.019     2.741     2.589
    10   1 H        0.924     0.067     2.118     2.276
    11   1 H        0.923     0.044     2.401     2.423
    12   1 H        0.926     0.028     2.622     2.532
    13   1 H        0.923     0.057     2.229     2.335
    14   1 H        0.924     0.044     2.399     2.422
    15   1 H        0.925     0.049     2.331     2.388
    16   1 H        0.925     0.044     2.393     2.419

Wiberg/Mayer (AO) data.
largest (>0.10) Wiberg bond orders for each atom

     #   Z sym  total        # sym  WBO       # sym  WBO       # sym  WBO
 ---------------------------------------------------------------------------
     1   8 O    1.916 --     2 O    0.974     8 H    0.895
     2   8 O    2.011 --     1 O    0.974     3 C    0.970
     3   6 C    3.940 --     4 C    0.981     7 C    0.979     2 O    0.970
                             9 H    0.964
     4   6 C    3.996 --     5 C    1.075     3 C    0.981    10 H    0.949
                            11 H    0.939
     5   6 C    3.286 --     6 C    1.076     4 C    1.075    12 H    0.976
     6   6 C    3.998 --     5 C    1.076     7 C    1.002    14 H    0.954
                            13 H    0.937
     7   6 C    3.995 --     6 C    1.002     3 C    0.979    16 H    0.977
                            15 H    0.977
     8   1 H    0.902 --     1 O    0.895
     9   1 H    1.000 --     3 C    0.964
    10   1 H    0.995 --     4 C    0.949
    11   1 H    0.996 --     4 C    0.939
    12   1 H    0.999 --     5 C    0.976
    13   1 H    0.995 --     6 C    0.937
    14   1 H    0.997 --     6 C    0.954
    15   1 H    0.998 --     7 C    0.977
    16   1 H    0.998 --     7 C    0.977
 ---------------------------------------------------------------------------

molecular dipole:
                 x           y           z       tot (Debye)
 q only:        0.036       0.220      -0.444
   full:        0.279       0.241      -0.539       1.660

           -------------------------------------------------
          | TOTAL ENERGY              -23.276236026705 Eh   |
          | GRADIENT NORM               0.000930154797 Eh/α |
          | HOMO-LUMO GAP               4.147035771714 eV   |
           -------------------------------------------------

 * finished run on 2025/05/23 at 13:10:38.798
