                         Program Version 5.0.4 -  RELEASE  -
|  1> ! EnGrad PBE0 RIJCOSX D3BJ def2-SVP def2/J
|  2> %output
|  3> xyzfile=True
|  4> end
|  5> %scf
|  6> maxiter 250
|  7> end
|  8> %output
|  9> Print[P_Hirshfeld] = 1
| 10> end
| 11> % maxcore
| 12> 4000
| 13> %pal nprocs 8
| 14> end
| 15> *xyz 0 2
| 16> O   -2.72621000   0.57077000   2.11445000
| 17> O   -0.39250000  -0.42119000   0.80655000
| 18> C   -0.73106000   0.14265000  -0.42993000
| 19> C    0.15555000   0.86607000   0.51805000
| 20> C    1.54411000   0.47705000   0.22503000
| 21> C    1.35141000  -0.62852000  -0.49965000
| 22> C    0.11539000  -0.67213000  -1.34392000
| 23> H   -1.95373000   0.01247000   1.85443000
| 24> H   -1.77593000   0.42303000  -0.59938000
| 25> H   -0.19543000   1.70622000   1.12242000
| 26> H    2.43912000   0.78454000   0.76219000
| 27> H    2.17043000  -1.32345000  -0.72160000
| 28> H    0.30518000  -0.25476000  -2.34665000
| 29> H   -0.30633000  -1.68267000  -1.46199000
| 30> *
| 31>
| 32>                          ****END OF INPUT****

CARTESIAN COORDINATES (ANGSTROEM)
---------------------------------
  O     -2.726210    0.570770    2.114450
  O     -0.392500   -0.421190    0.806550
  C     -0.731060    0.142650   -0.429930
  C      0.155550    0.866070    0.518050
  C      1.544110    0.477050    0.225030
  C      1.351410   -0.628520   -0.499650
  C      0.115390   -0.672130   -1.343920
  H     -1.953730    0.012470    1.854430
  H     -1.775930    0.423030   -0.599380
  H     -0.195430    1.706220    1.122420
  H      2.439120    0.784540    0.762190
  H      2.170430   -1.323450   -0.721600
  H      0.305180   -0.254760   -2.346650
  H     -0.306330   -1.682670   -1.461990

 Total Charge           Charge          ....    0
 Multiplicity           Mult            ....    2
 Number of Electrons    NEL             ....   53
 Basis Dimension        Dim             ....  133

ORBITAL ENERGIES
----------------
                 SPIN UP ORBITALS
  NO   OCC          E(Eh)            E(eV)
   0   1.0000     -19.240616      -523.5638
   1   1.0000     -19.235637      -523.4283
   2   1.0000     -10.301823      -280.3268
   3   1.0000     -10.300974      -280.3037
   4   1.0000     -10.251931      -278.9692
   5   1.0000     -10.247697      -278.8540
   6   1.0000     -10.236606      -278.5522
   7   1.0000      -1.143745       -31.1229
   8   1.0000      -0.989400       -26.9230
   9   1.0000      -0.847274       -23.0555
  10   1.0000      -0.763926       -20.7875
  11   1.0000      -0.690463       -18.7885
  12   1.0000      -0.606440       -16.5021
  13   1.0000      -0.576345       -15.6831
  14   1.0000      -0.571148       -15.5417
  15   1.0000      -0.483222       -13.1491
  16   1.0000      -0.481640       -13.1061
  17   1.0000      -0.455237       -12.3876
  18   1.0000      -0.441630       -12.0174
  19   1.0000      -0.414850       -11.2886
  20   1.0000      -0.407638       -11.0924
  21   1.0000      -0.398541       -10.8448
  22   1.0000      -0.378970       -10.3123
  23   1.0000      -0.340747        -9.2722
  24   1.0000      -0.321171        -8.7395
  25   1.0000      -0.318396        -8.6640
  26   1.0000      -0.245734        -6.6868
  27   0.0000      -0.013105        -0.3566
  28   0.0000       0.071116         1.9352
  29   0.0000       0.098044         2.6679
  30   0.0000       0.105521         2.8714
  31   0.0000       0.115261         3.1364

                 SPIN DOWN ORBITALS
  NO   OCC          E(Eh)            E(eV)
   0   1.0000     -19.235728      -523.4308
   1   1.0000     -19.213846      -522.8353
   2   1.0000     -10.301809      -280.3265
   3   1.0000     -10.300964      -280.3035
   4   1.0000     -10.251927      -278.9691
   5   1.0000     -10.247696      -278.8540
   6   1.0000     -10.236606      -278.5522
   7   1.0000      -1.143799       -31.1244
   8   1.0000      -0.912288       -24.8246
   9   1.0000      -0.847076       -23.0501
  10   1.0000      -0.763912       -20.7871
  11   1.0000      -0.690476       -18.7888
  12   1.0000      -0.606388       -16.5006
  13   1.0000      -0.575939       -15.6721
  14   1.0000      -0.571115       -15.5408
  15   1.0000      -0.482595       -13.1321
  16   1.0000      -0.480890       -13.0857
  17   1.0000      -0.449400       -12.2288
  18   1.0000      -0.425063       -11.5665
  19   1.0000      -0.412229       -11.2173
  20   1.0000      -0.405534       -11.0351
  21   1.0000      -0.378479       -10.2989
  22   1.0000      -0.340476        -9.2648
  23   1.0000      -0.317890        -8.6502
  24   1.0000      -0.293670        -7.9912
  25   1.0000      -0.245453        -6.6791
  26   0.0000      -0.110879        -3.0172
  27   0.0000      -0.013103        -0.3565
  28   0.0000       0.072156         1.9635
  29   0.0000       0.098447         2.6789
  30   0.0000       0.106096         2.8870

MULLIKEN ATOMIC CHARGES AND SPIN POPULATIONS
--------------------------------------------
   0 O :   -0.224290    1.025889
   1 O :   -0.347647   -0.001423
   2 C :   -0.011575    0.000114
   3 C :    0.081800    0.000683
   4 C :    0.011391   -0.000128
   5 C :   -0.125446    0.000068
   6 C :    0.113222    0.000180
   7 H :    0.195005   -0.025867
   8 H :    0.054746    0.000030
   9 H :    0.051409    0.000472
  10 H :    0.041465    0.000014
  11 H :    0.031477   -0.000038
  12 H :    0.066508    0.000012
  13 H :    0.061934   -0.000006
Sum of atomic charges         :    0.0000000

LOEWDIN ATOMIC CHARGES AND SPIN POPULATIONS
-------------------------------------------
   0 O :   -0.090510    0.997748
   1 O :   -0.153934   -0.001978
   2 C :    0.049409    0.000119
   3 C :    0.054865    0.000334
   4 C :   -0.066358   -0.000095
   5 C :    0.006241    0.000137
   6 C :   -0.044135    0.000132
   7 H :    0.039532    0.003167
   8 H :    0.025037    0.000127
   9 H :    0.028718    0.000338
  10 H :    0.035438   -0.000002
  11 H :    0.024842   -0.000026
  12 H :    0.044837   -0.000001
  13 H :    0.046017    0.000001

  Mayer bond orders larger than 0.100000
B(  0-O ,  7-H ) :   0.9360 B(  1-O ,  2-C ) :   0.9181 B(  1-O ,  3-C ) :   0.8914
B(  1-O ,  5-C ) :   0.1032 B(  2-C ,  3-C ) :   0.9995 B(  2-C ,  6-C ) :   0.9959
B(  2-C ,  8-H ) :   0.9735 B(  3-C ,  4-C ) :   0.9713 B(  3-C ,  9-H ) :   0.9850
B(  4-C ,  5-C ) :   1.8368 B(  4-C , 10-H ) :   0.9946 B(  5-C ,  6-C ) :   1.0225
B(  5-C , 11-H ) :   0.9658 B(  6-C , 12-H ) :   0.9239 B(  6-C , 13-H ) :   0.9252

Dispersion correction           -0.009638598
FINAL SINGLE POINT ENERGY      -344.354101783778
Dispersion correction            ... done

DIPOLE MOMENT
-------------
                                X             Y             Z
Electronic contribution:     -1.18963       0.57660       2.19267
Nuclear contribution   :      1.92323      -0.59656      -3.05520
                        -----------------------------------------
Total Dipole Moment    :      0.73360      -0.01996      -0.86253
                        -----------------------------------------
Magnitude (a.u.)       :      1.13248
Magnitude (Debye)      :      2.87855

Rotational constants in cm-1:     0.201158     0.058728     0.051058
Rotational constants in MHz :  6030.569553  1760.631289  1530.668418

                             ****ORCA TERMINATED NORMALLY****
TOTAL RUN TIME: 0 days 0 hours 0 minutes 41 seconds 631 msec
