                         Program Version 5.0.4 -  RELEASE  -
|  1> ! Freq PBE0 RIJCOSX D3BJ def2-SVP def2/J
|  2> %output
|  3> xyzfile=True
|  4> end
|  5> %scf
|  6> maxiter 250
|  7> end
|  8> %output
|  9> Print[P_Hirshfeld] = 1
| 10> end
| 11> % maxcore
| 12> 4000
| 13> %pal nprocs 8
| 14> end
| 15> *xyz 0 2
| 16> O   -2.56964727   0.64852322   1.71793873
| 17> O   -0.33359164  -0.43739802   0.82061501
| 18> C   -0.67044286   0.07574729  -0.42267668
| 19> C    0.18179396   0.83325501   0.52053050
| 20> C    1.57448203   0.45236166   0.23734538
| 21> C    1.45750820  -0.60729035  -0.56391369
| 22> C    0.20401677  -0.68818428  -1.37079370
| 23> H   -2.88963145   0.11695975   2.44623446
| 24> H   -1.70287861   0.33791018  -0.59150802
| 25> H   -0.16864151   1.67106077   1.09878183
| 26> H    2.42776006   0.76142708   0.80821294
| 27> H    2.30097819  -1.22318033  -0.84843776
| 28> H    0.34001886  -0.23168151  -2.35288583
| 29> H   -0.15173473  -1.70940048  -1.49939318
| 30> *
| 31>
| 32>                          ****END OF INPUT****

CARTESIAN COORDINATES (ANGSTROEM)
---------------------------------
  O     -2.569647    0.648523    1.717939
  O     -0.333592   -0.437398    0.820615
  C     -0.670443    0.075747   -0.422677
  C      0.181794    0.833255    0.520531
  C      1.574482    0.452362    0.237345
  C      1.457508   -0.607290   -0.563914
  C      0.204017   -0.688184   -1.370794
  H     -2.889631    0.116960    2.446234
  H     -1.702879    0.337910   -0.591508
  H     -0.168642    1.671061    1.098782
  H      2.427760    0.761427    0.808213
  H      2.300978   -1.223180   -0.848438
  H      0.340019   -0.231682   -2.352886
  H     -0.151735   -1.709400   -1.499393

 Total Charge           Charge          ....    0
 Multiplicity           Mult            ....    2
 Number of Electrons    NEL             ....   53
 Basis Dimension        Dim             ....  133

ORBITAL ENERGIES
----------------
                 SPIN UP ORBITALS
  NO   OCC          E(Eh)            E(eV)
   0   1.0000     -19.247298      -523.7456
   1   1.0000     -19.213864      -522.8358
   2   1.0000     -10.276925      -279.6493
   3   1.0000     -10.276584      -279.6401
   4   1.0000     -10.234274      -278.4888
   5   1.0000     -10.229744      -278.3655
   6   1.0000     -10.223312      -278.1905
   7   1.0000      -1.129859       -30.7450
   8   1.0000      -1.004400       -27.3311
   9   1.0000      -0.832667       -22.6580
  10   1.0000      -0.746307       -20.3081
  11   1.0000      -0.669023       -18.2050
  12   1.0000      -0.593986       -16.1632
  13   1.0000      -0.563100       -15.3227
  14   1.0000      -0.556360       -15.1393
  15   1.0000      -0.470045       -12.7906
  16   1.0000      -0.466138       -12.6843
  17   1.0000      -0.459501       -12.5037
  18   1.0000      -0.430811       -11.7230
  19   1.0000      -0.408029       -11.1030
  20   1.0000      -0.396689       -10.7944
  21   1.0000      -0.391365       -10.6496
  22   1.0000      -0.366610        -9.9760
  23   1.0000      -0.327684        -8.9167
  24   1.0000      -0.318216        -8.6591
  25   1.0000      -0.296070        -8.0565
  26   1.0000      -0.232474        -6.3259
  27   0.0000       0.004304         0.1171
  28   0.0000       0.077467         2.1080
  29   0.0000       0.095988         2.6120
  30   0.0000       0.117533         3.1982
  31   0.0000       0.126202         3.4341

                 SPIN DOWN ORBITALS
  NO   OCC          E(Eh)            E(eV)
   0   1.0000     -19.221259      -523.0371
   1   1.0000     -19.211822      -522.7802
   2   1.0000     -10.276974      -279.6507
   3   1.0000     -10.276637      -279.6415
   4   1.0000     -10.234268      -278.4886
   5   1.0000     -10.229654      -278.3630
   6   1.0000     -10.223186      -278.1870
   7   1.0000      -1.127215       -30.6731
   8   1.0000      -0.931556       -25.3489
   9   1.0000      -0.831830       -22.6352
  10   1.0000      -0.746124       -20.3031
  11   1.0000      -0.668042       -18.1783
  12   1.0000      -0.593727       -16.1561
  13   1.0000      -0.561712       -15.2850
  14   1.0000      -0.555338       -15.1115
  15   1.0000      -0.465921       -12.6783
  16   1.0000      -0.463902       -12.6234
  17   1.0000      -0.438128       -11.9221
  18   1.0000      -0.429314       -11.6822
  19   1.0000      -0.400188       -10.8897
  20   1.0000      -0.391253       -10.6465
  21   1.0000      -0.367382        -9.9970
  22   1.0000      -0.317523        -8.6402
  23   1.0000      -0.301302        -8.1988
  24   1.0000      -0.293417        -7.9843
  25   1.0000      -0.230488        -6.2719
  26   0.0000      -0.116755        -3.1771
  27   0.0000       0.004948         0.1346
  28   0.0000       0.082752         2.2518
  29   0.0000       0.098396         2.6775
  30   0.0000       0.117798         3.2055

MULLIKEN ATOMIC CHARGES AND SPIN POPULATIONS
--------------------------------------------
   0 O :   -0.194632    0.973883
   1 O :   -0.306978    0.050707
   2 C :   -0.006115   -0.004211
   3 C :    0.083354   -0.003911
   4 C :    0.031150    0.008057
   5 C :   -0.136020    0.003302
   6 C :    0.127854    0.000094
   7 H :    0.171311   -0.025427
   8 H :    0.042758   -0.001245
   9 H :    0.035646   -0.000512
  10 H :    0.024795   -0.000389
  11 H :    0.018919   -0.000088
  12 H :    0.056855   -0.000278
  13 H :    0.051103    0.000017
Sum of atomic charges         :    0.0000000

LOEWDIN ATOMIC CHARGES AND SPIN POPULATIONS
-------------------------------------------
   0 O :   -0.079404    0.938289
   1 O :   -0.131632    0.051708
   2 C :    0.047206   -0.001745
   3 C :    0.045356   -0.002267
   4 C :   -0.050349    0.006399
   5 C :   -0.007807    0.003094
   6 C :   -0.044841    0.000020
   7 H :    0.054877    0.005474
   8 H :    0.016965   -0.000551
   9 H :    0.020882   -0.000224
  10 H :    0.027510    0.000058
  11 H :    0.019663    0.000007
  12 H :    0.040717   -0.000221
  13 H :    0.040858   -0.000041

  Mayer bond orders larger than 0.100000
B(  0-O ,  7-H ) :   0.9937 B(  1-O ,  2-C ) :   0.9627 B(  1-O ,  3-C ) :   0.9148
B(  2-C ,  3-C ) :   1.0156 B(  2-C ,  6-C ) :   0.9886 B(  2-C ,  8-H ) :   0.9714
B(  3-C ,  4-C ) :   0.9726 B(  3-C ,  9-H ) :   0.9849 B(  4-C ,  5-C ) :   1.8383
B(  4-C , 10-H ) :   0.9976 B(  5-C ,  6-C ) :   1.0232 B(  5-C , 11-H ) :   0.9686
B(  6-C , 12-H ) :   0.9251 B(  6-C , 13-H ) :   0.9227

Dispersion correction           -0.009523850
FINAL SINGLE POINT ENERGY      -344.357289749181

DIPOLE MOMENT
-------------
                                X             Y             Z
Electronic contribution:     -1.11551       0.51221       2.16367
Nuclear contribution   :      0.98811      -0.51559      -2.20498
                        -----------------------------------------
Total Dipole Moment    :     -0.12740      -0.00338      -0.04131
                        -----------------------------------------
Magnitude (a.u.)       :      0.13397
Magnitude (Debye)      :      0.34052

Dispersion correction in the Hessian             ... done   (      0.4 sec)

VIBRATIONAL FREQUENCIES
-----------------------

Scaling factor for frequencies =  1.000000000  (already applied!)

   0:         0.00 cm**-1
   1:         0.00 cm**-1
   2:         0.00 cm**-1
   3:         0.00 cm**-1
   4:         0.00 cm**-1
   5:         0.00 cm**-1
   6:      -525.07 cm**-1 ***imaginary mode***
   7:      -482.59 cm**-1 ***imaginary mode***
   8:      -113.07 cm**-1 ***imaginary mode***
   9:       -88.79 cm**-1 ***imaginary mode***
  10:        91.76 cm**-1
  11:       308.80 cm**-1
  12:       409.02 cm**-1
  13:       477.57 cm**-1
  14:       670.14 cm**-1
  15:       721.21 cm**-1
  16:       803.27 cm**-1
  17:       841.80 cm**-1
  18:       882.99 cm**-1
  19:       934.97 cm**-1
  20:       941.20 cm**-1
  21:       982.45 cm**-1
  22:       991.13 cm**-1
  23:      1034.34 cm**-1
  24:      1050.94 cm**-1
  25:      1080.23 cm**-1
  26:      1097.97 cm**-1
  27:      1159.32 cm**-1
  28:      1201.56 cm**-1
  29:      1237.86 cm**-1
  30:      1314.48 cm**-1
  31:      1378.80 cm**-1
  32:      1421.13 cm**-1
  33:      1449.13 cm**-1
  34:      1704.13 cm**-1
  35:      3175.93 cm**-1
  36:      3246.60 cm**-1
  37:      3305.30 cm**-1
  38:      3346.96 cm**-1
  39:      3372.12 cm**-1
  40:      3426.74 cm**-1
  41:      4013.02 cm**-1

IR SPECTRUM
-----------

 Mode   freq       eps      Int      T**2         TX        TY        TZ
       cm**-1   L/(mol*cm) km/mol    a.u.
----------------------------------------------------------------------------
 10:     91.76   0.000551    2.79  0.001875  (-0.033729  0.003337  0.026943)
 11:    308.80   0.000204    1.03  0.000206  ( 0.003249  0.007011  0.012106)
 12:    409.02   0.000491    2.48  0.000374  ( 0.007451 -0.017752 -0.001892)
 13:    477.57   0.006821   34.47  0.004457  ( 0.023459  0.049849 -0.037705)
 14:    670.14   0.001982   10.02  0.000923  (-0.004238  0.029633 -0.005184)
 15:    721.21   0.000158    0.80  0.000068  ( 0.004021  0.001363 -0.007082)
 16:    803.27   0.000547    2.77  0.000213  ( 0.006768 -0.010148 -0.007993)
 17:    841.80   0.009057   45.77  0.003358  ( 0.009222  0.046873 -0.032793)
 18:    882.99   0.000103    0.52  0.000037  ( 0.005168  0.001689  0.002637)
 19:    934.97   0.000639    3.23  0.000213  ( 0.009310  0.003927 -0.010551)
 20:    941.20   0.002716   13.73  0.000901  ( 0.002989 -0.009460 -0.028321)
 21:    982.45   0.000571    2.89  0.000181  (-0.010022 -0.008717 -0.002223)
 22:    991.13   0.002104   10.63  0.000662  (-0.019383 -0.016932  0.000093)
 23:   1034.34   0.001017    5.14  0.000307  (-0.008878  0.003036  0.014795)
 24:   1050.94   0.001134    5.73  0.000337  ( 0.015326 -0.002810 -0.009697)
 25:   1080.23   0.003439   17.38  0.000993  ( 0.015663 -0.005348 -0.026824)
 26:   1097.97   0.000640    3.23  0.000182  (-0.005327 -0.004743  0.011445)
 27:   1159.32   0.002693   13.61  0.000725  (-0.018988 -0.014124  0.012845)
 28:   1201.56   0.002628   13.28  0.000682  ( 0.013163 -0.018831  0.012434)
 29:   1237.86   0.000020    0.10  0.000005  ( 0.001464 -0.000891 -0.001481)
 30:   1314.48   0.001654    8.36  0.000393  (-0.017931  0.008426  0.000458)
 31:   1378.80   0.001921    9.71  0.000435  ( 0.003711 -0.016262 -0.012509)
 32:   1421.13   0.001424    7.20  0.000313  (-0.001831  0.005472  0.016714)
 33:   1449.13   0.005318   26.88  0.001145  (-0.017852 -0.007776  0.027678)
 34:   1704.13   0.001280    6.47  0.000234  ( 0.003279 -0.011242 -0.009864)
 35:   3175.93   0.002928   14.80  0.000288  ( 0.001686  0.005842  0.015836)
 36:   3246.60   0.001454    7.35  0.000140  (-0.005142 -0.010312  0.002647)
 37:   3305.30   0.002729   13.79  0.000258  (-0.013158  0.009008  0.001836)
 38:   3346.96   0.000962    4.86  0.000090  (-0.002087  0.000701 -0.009212)
 39:   3372.12   0.000858    4.34  0.000079  ( 0.002890  0.008185 -0.002014)
 40:   3426.74   0.000474    2.40  0.000043  ( 0.006383  0.000404 -0.001517)
 41:   4013.02   0.010804   54.60  0.000840  ( 0.018980  0.006278 -0.020988)

--------------------------
THERMOCHEMISTRY AT 298.15K
--------------------------

Temperature         ... 298.15 K
Pressure            ... 1.00 atm
Total Mass          ... 99.11 AMU

Throughout the following assumptions are being made:
  (1) The electronic state is orbitally nondegenerate
      but the spin degeneracy is treated
  (2) There are no thermally accessible electronically excited states
  (3) Hindered rotations indicated by low frequency modes are not
      treated as such but are treated as vibrations and this may
      cause some error
  (4) All equations used are the standard statistical mechanics
      equations for an ideal gas
  (5) All vibrations are strictly harmonic

freq.      91.76  E(vib)   ...       0.47
freq.     308.80  E(vib)   ...       0.26
freq.     409.02  E(vib)   ...       0.19
freq.     477.57  E(vib)   ...       0.15
freq.     670.14  E(vib)   ...       0.08
freq.     721.21  E(vib)   ...       0.07
freq.     803.27  E(vib)   ...       0.05
freq.     841.80  E(vib)   ...       0.04
freq.     882.99  E(vib)   ...       0.04
freq.     934.97  E(vib)   ...       0.03
freq.     941.20  E(vib)   ...       0.03
freq.     982.45  E(vib)   ...       0.02
freq.     991.13  E(vib)   ...       0.02
freq.    1034.34  E(vib)   ...       0.02
freq.    1050.94  E(vib)   ...       0.02
freq.    1080.23  E(vib)   ...       0.02
freq.    1097.97  E(vib)   ...       0.02
freq.    1159.32  E(vib)   ...       0.01
freq.    1201.56  E(vib)   ...       0.01
freq.    1237.86  E(vib)   ...       0.01
freq.    1314.48  E(vib)   ...       0.01
freq.    1378.80  E(vib)   ...       0.01
freq.    1421.13  E(vib)   ...       0.00
freq.    1449.13  E(vib)   ...       0.00
freq.    1704.13  E(vib)   ...       0.00
freq.    3175.93  E(vib)   ...       0.00
freq.    3246.60  E(vib)   ...       0.00
freq.    3305.30  E(vib)   ...       0.00
freq.    3346.96  E(vib)   ...       0.00
freq.    3372.12  E(vib)   ...       0.00
freq.    3426.74  E(vib)   ...       0.00
freq.    4013.02  E(vib)   ...       0.00

------------
INNER ENERGY
------------

The inner energy is: U= E(el) + E(ZPE) + E(vib) + E(rot) + E(trans)
    E(el)   - is the total energy from the electronic structure calculation
              = E(kin-el) + E(nuc-el) + E(el-el) + E(nuc-nuc)
    E(ZPE)  - the the zero temperature vibrational energy from the frequency calculation
    E(vib)  - the the finite temperature correction to E(ZPE) due to population
              of excited vibrational states
    E(rot)  - is the rotational thermal energy
    E(trans)- is the translational thermal energy

Summary of contributions to the inner energy U:
Electronic energy                ...   -344.35728975 Eh
Zero point energy                ...      0.10951801 Eh      68.72 kcal/mol
Thermal vibrational correction   ...      0.00250373 Eh       1.57 kcal/mol
Thermal rotational correction    ...      0.00141627 Eh       0.89 kcal/mol
Thermal translational correction ...      0.00141627 Eh       0.89 kcal/mol
-----------------------------------------------------------------------
Total thermal energy                   -344.24243547 Eh

Summary of corrections to the electronic energy:
(perhaps to be used in another calculation)
Total thermal correction                  0.00533627 Eh       3.35 kcal/mol
Non-thermal (ZPE) correction              0.10951801 Eh      68.72 kcal/mol
-----------------------------------------------------------------------
Total correction                          0.11485428 Eh      72.07 kcal/mol

--------
ENTHALPY
--------

The enthalpy is H = U + kB*T
                kB is Boltzmann's constant
Total free energy                 ...   -344.24243547 Eh
Thermal Enthalpy correction       ...      0.00094421 Eh       0.59 kcal/mol
-----------------------------------------------------------------------
Total Enthalpy                    ...   -344.24149126 Eh

Note: Only C1 symmetry has been detected, increase convergence thresholds
      if your molecule has a higher symmetry. Symmetry factor of 1.0 is
      used for the rotational entropy correction.

Note: Rotational entropy computed according to Herzberg
Infrared and Raman Spectra, Chapter V,1, Van Nostrand Reinhold, 1945
Point Group:  C1, Symmetry Number:   1
Rotational constants in cm-1:     0.206466     0.062700     0.053864

Vibrational entropy computed according to the QRRHO of S. Grimme
Chem.Eur.J. 2012 18 9955

-------
ENTROPY
-------

The entropy contributions are T*S = T*(S(el)+S(vib)+S(rot)+S(trans))
     S(el)   - electronic entropy
     S(vib)  - vibrational entropy
     S(rot)  - rotational entropy
     S(trans)- translational entropy
The entropies will be listed as multiplied by the temperature to get
units of energy

Electronic entropy                ...      0.00065446 Eh      0.41 kcal/mol
Vibrational entropy               ...      0.00396011 Eh      2.49 kcal/mol
Rotational entropy                ...      0.01294211 Eh      8.12 kcal/mol
Translational entropy             ...      0.01885857 Eh     11.83 kcal/mol
-----------------------------------------------------------------------
Final entropy term                ...      0.03641524 Eh     22.85 kcal/mol

In case the symmetry of your molecule has not been determined correctly
or in case you have a reason to use a different symmetry number we print
out the resulting rotational entropy values for sn=1,12 :
 --------------------------------------------------------
|  sn= 1 | S(rot)=       0.01294211 Eh      8.12 kcal/mol|
|  sn= 2 | S(rot)=       0.01228765 Eh      7.71 kcal/mol|
|  sn= 3 | S(rot)=       0.01190482 Eh      7.47 kcal/mol|
|  sn= 4 | S(rot)=       0.01163319 Eh      7.30 kcal/mol|
|  sn= 5 | S(rot)=       0.01142250 Eh      7.17 kcal/mol|
|  sn= 6 | S(rot)=       0.01125036 Eh      7.06 kcal/mol|
|  sn= 7 | S(rot)=       0.01110481 Eh      6.97 kcal/mol|
|  sn= 8 | S(rot)=       0.01097874 Eh      6.89 kcal/mol|
|  sn= 9 | S(rot)=       0.01086753 Eh      6.82 kcal/mol|
|  sn=10 | S(rot)=       0.01076805 Eh      6.76 kcal/mol|
|  sn=11 | S(rot)=       0.01067806 Eh      6.70 kcal/mol|
|  sn=12 | S(rot)=       0.01059590 Eh      6.65 kcal/mol|
 --------------------------------------------------------

-------------------
GIBBS FREE ENERGY
-------------------

The Gibbs free energy is G = H - T*S

Total enthalpy                    ...   -344.24149126 Eh
Total entropy correction          ...     -0.03641524 Eh    -22.85 kcal/mol
-----------------------------------------------------------------------
Final Gibbs free energy         ...   -344.27790650 Eh

For completeness - the Gibbs free energy minus the electronic energy
G-E(el)                           ...      0.07938325 Eh     49.81 kcal/mol

                             ****ORCA TERMINATED NORMALLY****
TOTAL RUN TIME: 0 days 0 hours 0 minutes 54 seconds 845 msec
