                         Program Version 5.0.4 -  RELEASE  -
|  1> ! Freq PBE0 RIJCOSX D3BJ def2-SVP def2/J
|  2> %output
|  3> xyzfile=True
|  4> end
|  5> %scf
|  6> maxiter 250
|  7> end
|  8> %output
|  9> Print[P_Hirshfeld] = 1
| 10> end
| 11> % maxcore
| 12> 4000
| 13> %pal nprocs 8
| 14> end
| 15> *xyz 0 2
| 16> O   -2.19866823  -0.95153572   0.99381022
| 17> O   -0.76850039   0.12632830   1.01753764
| 18> C   -0.65793155   0.58120606  -0.28552993
| 19> C    0.52241403   1.40626018   0.13336433
| 20> C    1.59340067   0.51019733   0.22482010
| 21> C    1.18134787  -0.71032522  -0.27481930
| 22> C   -0.09686608  -0.60480012  -1.03842669
| 23> H   -2.15557097  -1.07063890   1.95402350
| 24> H   -1.55223837   1.09291778  -0.67103755
| 25> H    0.46002319   2.42269307   0.52040436
| 26> H    2.55457048   0.70749737   0.70132163
| 27> H    1.79498382  -1.61428201  -0.24578881
| 28> H    0.09171027  -0.43037696  -2.11348348
| 29> H   -0.76867473  -1.46504117  -0.91619603
| 30> *
| 31>
| 32>                          ****END OF INPUT****

CARTESIAN COORDINATES (ANGSTROEM)
---------------------------------
  O     -2.198668   -0.951536    0.993810
  O     -0.768500    0.126328    1.017538
  C     -0.657932    0.581206   -0.285530
  C      0.522414    1.406260    0.133364
  C      1.593401    0.510197    0.224820
  C      1.181348   -0.710325   -0.274819
  C     -0.096866   -0.604800   -1.038427
  H     -2.155571   -1.070639    1.954023
  H     -1.552238    1.092918   -0.671038
  H      0.460023    2.422693    0.520404
  H      2.554570    0.707497    0.701322
  H      1.794984   -1.614282   -0.245789
  H      0.091710   -0.430377   -2.113483
  H     -0.768675   -1.465041   -0.916196

 Total Charge           Charge          ....    0
 Multiplicity           Mult            ....    2
 Number of Electrons    NEL             ....   53
 Basis Dimension        Dim             ....  133

ORBITAL ENERGIES
----------------
                 SPIN UP ORBITALS
  NO   OCC          E(Eh)            E(eV)
   0   1.0000     -19.245494      -523.6965
   1   1.0000     -19.219240      -522.9821
   2   1.0000     -10.288214      -279.9565
   3   1.0000     -10.269835      -279.4564
   4   1.0000     -10.258101      -279.1371
   5   1.0000     -10.247706      -278.8543
   6   1.0000     -10.234302      -278.4895
   7   1.0000      -1.054112       -28.6838
   8   1.0000      -0.955207       -25.9925
   9   1.0000      -0.858368       -23.3574
  10   1.0000      -0.744654       -20.2631
  11   1.0000      -0.706476       -19.2242
  12   1.0000      -0.581510       -15.8237
  13   1.0000      -0.562763       -15.3136
  14   1.0000      -0.551698       -15.0125
  15   1.0000      -0.485520       -13.2117
  16   1.0000      -0.465615       -12.6700
  17   1.0000      -0.435225       -11.8431
  18   1.0000      -0.413726       -11.2580
  19   1.0000      -0.407080       -11.0772
  20   1.0000      -0.399318       -10.8660
  21   1.0000      -0.378177       -10.2907
  22   1.0000      -0.357092        -9.7170
  23   1.0000      -0.319547        -8.6953
  24   1.0000      -0.313639        -8.5346
  25   1.0000      -0.264045        -7.1850
  26   1.0000      -0.211612        -5.7583
  27   0.0000      -0.065706        -1.7879
  28   0.0000       0.032323         0.8795
  29   0.0000       0.079121         2.1530
  30   0.0000       0.102750         2.7960
  31   0.0000       0.118371         3.2210

                 SPIN DOWN ORBITALS
  NO   OCC          E(Eh)            E(eV)
   0   1.0000     -19.249333      -523.8010
   1   1.0000     -19.207186      -522.6541
   2   1.0000     -10.288567      -279.9662
   3   1.0000     -10.262662      -279.2612
   4   1.0000     -10.251476      -278.9569
   5   1.0000     -10.248786      -278.8836
   6   1.0000     -10.234869      -278.5050
   7   1.0000      -1.056029       -28.7360
   8   1.0000      -0.929292       -25.2873
   9   1.0000      -0.851476       -23.1698
  10   1.0000      -0.740055       -20.1379
  11   1.0000      -0.696023       -18.9397
  12   1.0000      -0.576834       -15.6964
  13   1.0000      -0.560032       -15.2392
  14   1.0000      -0.545722       -14.8498
  15   1.0000      -0.479431       -13.0460
  16   1.0000      -0.462302       -12.5799
  17   1.0000      -0.428056       -11.6480
  18   1.0000      -0.409873       -11.1532
  19   1.0000      -0.402929       -10.9642
  20   1.0000      -0.394601       -10.7376
  21   1.0000      -0.375556       -10.2194
  22   1.0000      -0.341063        -9.2808
  23   1.0000      -0.311405        -8.4737
  24   1.0000      -0.287592        -7.8258
  25   1.0000      -0.257287        -7.0011
  26   0.0000      -0.088625        -2.4116
  27   0.0000      -0.034645        -0.9427
  28   0.0000       0.054281         1.4771
  29   0.0000       0.081027         2.2048
  30   0.0000       0.106512         2.8983

MULLIKEN ATOMIC CHARGES AND SPIN POPULATIONS
--------------------------------------------
   0 O :   -0.261302    0.427352
   1 O :   -0.276828   -0.176422
   2 C :    0.038582   -0.033856
   3 C :   -0.007844    0.522921
   4 C :    0.001648   -0.289388
   5 C :   -0.069835    0.623525
   6 C :    0.095421   -0.051517
   7 H :    0.178502   -0.009489
   8 H :    0.042152    0.002118
   9 H :    0.055555   -0.025015
  10 H :    0.036454    0.010551
  11 H :    0.036891   -0.030268
  12 H :    0.057870    0.025364
  13 H :    0.072734    0.004125
Sum of atomic charges         :    0.0000000

LOEWDIN ATOMIC CHARGES AND SPIN POPULATIONS
-------------------------------------------
   0 O :   -0.158364    0.394170
   1 O :   -0.101748   -0.144240
   2 C :    0.038409   -0.001109
   3 C :    0.017250    0.400408
   4 C :   -0.036253   -0.163148
   5 C :    0.032827    0.494780
   6 C :   -0.053317   -0.008819
   7 H :    0.059283    0.003263
   8 H :    0.020682    0.001443
   9 H :    0.034641   -0.000679
  10 H :    0.036120    0.000704
  11 H :    0.026821   -0.001118
  12 H :    0.039250    0.020369
  13 H :    0.044399    0.003976

  Mayer bond orders larger than 0.100000
B(  0-O ,  1-O ) :   0.6484 B(  0-O ,  7-H ) :   0.9790 B(  1-O ,  2-C ) :   0.9481
B(  1-O ,  3-C ) :   0.2122 B(  2-C ,  3-C ) :   0.9683 B(  2-C ,  6-C ) :   1.0098
B(  2-C ,  8-H ) :   0.9536 B(  3-C ,  4-C ) :   1.3020 B(  3-C ,  9-H ) :   0.9947
B(  4-C ,  5-C ) :   1.4657 B(  4-C , 10-H ) :   0.9932 B(  5-C ,  6-C ) :   0.9955
B(  5-C , 11-H ) :   0.9784 B(  6-C , 12-H ) :   0.9265 B(  6-C , 13-H ) :   0.9249

Dispersion correction           -0.010273604
FINAL SINGLE POINT ENERGY      -344.346531145595

DIPOLE MOMENT
-------------
                                X             Y             Z
Electronic contribution:     -0.78714       0.63100       1.65495
Nuclear contribution   :      1.45340      -0.39001      -1.79174
                        -----------------------------------------
Total Dipole Moment    :      0.66625       0.24099      -0.13680
                        -----------------------------------------
Magnitude (a.u.)       :      0.72158
Magnitude (Debye)      :      1.83412

Dispersion correction in the Hessian             ... done   (      0.4 sec)

VIBRATIONAL FREQUENCIES
-----------------------

Scaling factor for frequencies =  1.000000000  (already applied!)

   0:         0.00 cm**-1
   1:         0.00 cm**-1
   2:         0.00 cm**-1
   3:         0.00 cm**-1
   4:         0.00 cm**-1
   5:         0.00 cm**-1
   6:      -654.04 cm**-1 ***imaginary mode***
   7:        78.64 cm**-1
   8:       165.42 cm**-1
   9:       232.56 cm**-1
  10:       316.23 cm**-1
  11:       338.98 cm**-1
  12:       464.72 cm**-1
  13:       483.54 cm**-1
  14:       662.32 cm**-1
  15:       739.07 cm**-1
  16:       779.79 cm**-1
  17:       823.98 cm**-1
  18:       927.05 cm**-1
  19:       935.74 cm**-1
  20:       941.06 cm**-1
  21:       976.19 cm**-1
  22:       987.95 cm**-1
  23:      1007.79 cm**-1
  24:      1071.17 cm**-1
  25:      1110.26 cm**-1
  26:      1113.82 cm**-1
  27:      1179.78 cm**-1
  28:      1261.42 cm**-1
  29:      1292.14 cm**-1
  30:      1322.05 cm**-1
  31:      1360.88 cm**-1
  32:      1414.49 cm**-1
  33:      1438.88 cm**-1
  34:      1508.40 cm**-1
  35:      3053.64 cm**-1
  36:      3128.73 cm**-1
  37:      3162.24 cm**-1
  38:      3217.41 cm**-1
  39:      3247.05 cm**-1
  40:      3274.44 cm**-1
  41:      3845.79 cm**-1

IR SPECTRUM
-----------

 Mode   freq       eps      Int      T**2         TX        TY        TZ
       cm**-1   L/(mol*cm) km/mol    a.u.
----------------------------------------------------------------------------
  7:     78.64   0.019579   98.94  0.077695  (-0.173617  0.215152  0.035519)
  8:    165.42   0.000745    3.76  0.001405  (-0.022854  0.028964  0.006646)
  9:    232.56   0.000551    2.79  0.000740  (-0.013105 -0.023544  0.003713)
 10:    316.23   0.000023    0.12  0.000023  (-0.004725 -0.000302 -0.000775)
 11:    338.98   0.000653    3.30  0.000602  ( 0.023515  0.000424 -0.006956)
 12:    464.72   0.001128    5.70  0.000757  (-0.002029 -0.017095 -0.021474)
 13:    483.54   0.000023    0.12  0.000015  (-0.003709  0.001038  0.000156)
 14:    662.32   0.011040   55.79  0.005201  (-0.022711 -0.041198  0.054666)
 15:    739.07   0.003682   18.60  0.001554  ( 0.014280  0.020979 -0.030174)
 16:    779.79   0.000670    3.39  0.000268  (-0.007060 -0.014773 -0.000071)
 17:    823.98   0.000545    2.76  0.000207  ( 0.007023 -0.011376 -0.005269)
 18:    927.05   0.004144   20.94  0.001395  ( 0.029225  0.023136  0.002378)
 19:    935.74   0.001250    6.32  0.000417  ( 0.018731  0.002242  0.007806)
 20:    941.06   0.000643    3.25  0.000213  ( 0.007684  0.010748  0.006224)
 21:    976.19   0.003105   15.69  0.000993  (-0.012688 -0.024315 -0.015508)
 22:    987.95   0.007194   36.35  0.002272  ( 0.040930  0.023406 -0.007011)
 23:   1007.79   0.002640   13.34  0.000817  (-0.023025 -0.003098  0.016663)
 24:   1071.17   0.000628    3.17  0.000183  ( 0.011466 -0.001235 -0.007072)
 25:   1110.26   0.000974    4.92  0.000274  (-0.008116 -0.006217 -0.013005)
 26:   1113.82   0.002443   12.35  0.000684  (-0.019262 -0.006120  0.016612)
 27:   1179.78   0.003175   16.05  0.000840  (-0.005282  0.009796 -0.026759)
 28:   1261.42   0.000122    0.62  0.000030  ( 0.002495 -0.000221  0.004887)
 29:   1292.14   0.000110    0.56  0.000027  (-0.001530 -0.004570 -0.001853)
 30:   1322.05   0.002796   14.13  0.000660  ( 0.015640 -0.017185 -0.010962)
 31:   1360.88   0.001481    7.49  0.000340  (-0.012715  0.009384 -0.009487)
 32:   1414.49   0.004301   21.74  0.000949  (-0.000775 -0.029865 -0.007511)
 33:   1438.88   0.001543    7.80  0.000335  ( 0.010623 -0.006698  0.013305)
 34:   1508.40   0.001049    5.30  0.000217  (-0.014069  0.003623  0.002422)
 35:   3053.64   0.003056   15.44  0.000312  (-0.001685  0.002520  0.017410)
 36:   3128.73   0.005102   25.79  0.000509  ( 0.013965 -0.013794  0.011119)
 37:   3162.24   0.000018    0.09  0.000002  ( 0.001156 -0.000279 -0.000636)
 38:   3217.41   0.000700    3.54  0.000068  ( 0.003276 -0.007185  0.002354)
 39:   3247.05   0.000886    4.48  0.000085  (-0.009056  0.001215 -0.001290)
 40:   3274.44   0.000024    0.12  0.000002  ( 0.001129 -0.001028 -0.000008)
 41:   3845.79   0.016914   85.48  0.001373  (-0.021090 -0.012488  0.027781)

--------------------------
THERMOCHEMISTRY AT 298.15K
--------------------------

Temperature         ... 298.15 K
Pressure            ... 1.00 atm
Total Mass          ... 99.11 AMU

Throughout the following assumptions are being made:
  (1) The electronic state is orbitally nondegenerate
      but the spin degeneracy is treated
  (2) There are no thermally accessible electronically excited states
  (3) Hindered rotations indicated by low frequency modes are not
      treated as such but are treated as vibrations and this may
      cause some error
  (4) All equations used are the standard statistical mechanics
      equations for an ideal gas
  (5) All vibrations are strictly harmonic

freq.      78.64  E(vib)   ...       0.49
freq.     165.42  E(vib)   ...       0.39
freq.     232.56  E(vib)   ...       0.32
freq.     316.23  E(vib)   ...       0.25
freq.     338.98  E(vib)   ...       0.23
freq.     464.72  E(vib)   ...       0.16
freq.     483.54  E(vib)   ...       0.15
freq.     662.32  E(vib)   ...       0.08
freq.     739.07  E(vib)   ...       0.06
freq.     779.79  E(vib)   ...       0.05
freq.     823.98  E(vib)   ...       0.05
freq.     927.05  E(vib)   ...       0.03
freq.     935.74  E(vib)   ...       0.03
freq.     941.06  E(vib)   ...       0.03
freq.     976.19  E(vib)   ...       0.03
freq.     987.95  E(vib)   ...       0.02
freq.    1007.79  E(vib)   ...       0.02
freq.    1071.17  E(vib)   ...       0.02
freq.    1110.26  E(vib)   ...       0.02
freq.    1113.82  E(vib)   ...       0.01
freq.    1179.78  E(vib)   ...       0.01
freq.    1261.42  E(vib)   ...       0.01
freq.    1292.14  E(vib)   ...       0.01
freq.    1322.05  E(vib)   ...       0.01
freq.    1360.88  E(vib)   ...       0.01
freq.    1414.49  E(vib)   ...       0.00
freq.    1438.88  E(vib)   ...       0.00
freq.    1508.40  E(vib)   ...       0.00
freq.    3053.64  E(vib)   ...       0.00
freq.    3128.73  E(vib)   ...       0.00
freq.    3162.24  E(vib)   ...       0.00
freq.    3217.41  E(vib)   ...       0.00
freq.    3247.05  E(vib)   ...       0.00
freq.    3274.44  E(vib)   ...       0.00
freq.    3845.79  E(vib)   ...       0.00

------------
INNER ENERGY
------------

The inner energy is: U= E(el) + E(ZPE) + E(vib) + E(rot) + E(trans)
    E(el)   - is the total energy from the electronic structure calculation
              = E(kin-el) + E(nuc-el) + E(el-el) + E(nuc-nuc)
    E(ZPE)  - the the zero temperature vibrational energy from the frequency calculation
    E(vib)  - the the finite temperature correction to E(ZPE) due to population
              of excited vibrational states
    E(rot)  - is the rotational thermal energy
    E(trans)- is the translational thermal energy

Summary of contributions to the inner energy U:
Electronic energy                ...   -344.34653115 Eh
Zero point energy                ...      0.10904137 Eh      68.42 kcal/mol
Thermal vibrational correction   ...      0.00396198 Eh       2.49 kcal/mol
Thermal rotational correction    ...      0.00141627 Eh       0.89 kcal/mol
Thermal translational correction ...      0.00141627 Eh       0.89 kcal/mol
-----------------------------------------------------------------------
Total thermal energy                   -344.23069525 Eh

Summary of corrections to the electronic energy:
(perhaps to be used in another calculation)
Total thermal correction                  0.00679453 Eh       4.26 kcal/mol
Non-thermal (ZPE) correction              0.10904137 Eh      68.42 kcal/mol
-----------------------------------------------------------------------
Total correction                          0.11583590 Eh      72.69 kcal/mol

--------
ENTHALPY
--------

The enthalpy is H = U + kB*T
                kB is Boltzmann's constant
Total free energy                 ...   -344.23069525 Eh
Thermal Enthalpy correction       ...      0.00094421 Eh       0.59 kcal/mol
-----------------------------------------------------------------------
Total Enthalpy                    ...   -344.22975104 Eh

Note: Only C1 symmetry has been detected, increase convergence thresholds
      if your molecule has a higher symmetry. Symmetry factor of 1.0 is
      used for the rotational entropy correction.

Note: Rotational entropy computed according to Herzberg
Infrared and Raman Spectra, Chapter V,1, Van Nostrand Reinhold, 1945
Point Group:  C1, Symmetry Number:   1
Rotational constants in cm-1:     0.169415     0.077091     0.067866

Vibrational entropy computed according to the QRRHO of S. Grimme
Chem.Eur.J. 2012 18 9955

-------
ENTROPY
-------

The entropy contributions are T*S = T*(S(el)+S(vib)+S(rot)+S(trans))
     S(el)   - electronic entropy
     S(vib)  - vibrational entropy
     S(rot)  - rotational entropy
     S(trans)- translational entropy
The entropies will be listed as multiplied by the temperature to get
units of energy

Electronic entropy                ...      0.00065446 Eh      0.41 kcal/mol
Vibrational entropy               ...      0.00652852 Eh      4.10 kcal/mol
Rotational entropy                ...      0.01282885 Eh      8.05 kcal/mol
Translational entropy             ...      0.01885857 Eh     11.83 kcal/mol
-----------------------------------------------------------------------
Final entropy term                ...      0.03887039 Eh     24.39 kcal/mol

In case the symmetry of your molecule has not been determined correctly
or in case you have a reason to use a different symmetry number we print
out the resulting rotational entropy values for sn=1,12 :
 --------------------------------------------------------
|  sn= 1 | S(rot)=       0.01282885 Eh      8.05 kcal/mol|
|  sn= 2 | S(rot)=       0.01217439 Eh      7.64 kcal/mol|
|  sn= 3 | S(rot)=       0.01179156 Eh      7.40 kcal/mol|
|  sn= 4 | S(rot)=       0.01151994 Eh      7.23 kcal/mol|
|  sn= 5 | S(rot)=       0.01130925 Eh      7.10 kcal/mol|
|  sn= 6 | S(rot)=       0.01113710 Eh      6.99 kcal/mol|
|  sn= 7 | S(rot)=       0.01099156 Eh      6.90 kcal/mol|
|  sn= 8 | S(rot)=       0.01086548 Eh      6.82 kcal/mol|
|  sn= 9 | S(rot)=       0.01075427 Eh      6.75 kcal/mol|
|  sn=10 | S(rot)=       0.01065479 Eh      6.69 kcal/mol|
|  sn=11 | S(rot)=       0.01056480 Eh      6.63 kcal/mol|
|  sn=12 | S(rot)=       0.01048265 Eh      6.58 kcal/mol|
 --------------------------------------------------------

-------------------
GIBBS FREE ENERGY
-------------------

The Gibbs free energy is G = H - T*S

Total enthalpy                    ...   -344.22975104 Eh
Total entropy correction          ...     -0.03887039 Eh    -24.39 kcal/mol
-----------------------------------------------------------------------
Final Gibbs free energy         ...   -344.26862143 Eh

For completeness - the Gibbs free energy minus the electronic energy

                             ****ORCA TERMINATED NORMALLY****
TOTAL RUN TIME: 0 days 0 hours 0 minutes 56 seconds 202 msec
