                         Program Version 5.0.4 -  RELEASE  -
|  1> ! EnGrad PBE0 RIJCOSX D3BJ def2-SVP def2/J
|  2> %output
|  3> xyzfile=True
|  4> end
|  5> %scf
|  6> maxiter 250
|  7> end
|  8> %output
|  9> Print[P_Hirshfeld] = 1
| 10> end
| 11> % maxcore
| 12> 4000
| 13> *xyz 0 2
| 14> O   -2.46675001   0.21590101   1.56753317
| 15> O   -0.53465265  -0.30103350   0.83417286
| 16> C   -0.72553062   0.21751927  -0.45005077
| 17> C    0.15743870   0.90462133   0.52363362
| 18> C    1.52836896   0.43016498   0.27103109
| 19> C    1.36995676  -0.62127739  -0.53485650
| 20> C    0.10343742  -0.66073263  -1.32701708
| 21> H   -2.08676860   0.00086681   2.43346581
| 22> H   -1.72179612   0.58301583  -0.71089135
| 23> H   -0.15242102   1.78426688   1.09143534
| 24> H    2.42222326   0.70378742   0.82996330
| 25> H    2.18362041  -1.31392015  -0.77539368
| 26> H    0.26594217  -0.27820825  -2.34917391
| 27> H   -0.34306865  -1.66487696  -1.40385726
| 28> *
| 29>
| 30>                          ****END OF INPUT****

CARTESIAN COORDINATES (ANGSTROEM)
---------------------------------
  O     -2.466750    0.215901    1.567533
  O     -0.534653   -0.301034    0.834173
  C     -0.725531    0.217519   -0.450051
  C      0.157439    0.904621    0.523634
  C      1.528369    0.430165    0.271031
  C      1.369957   -0.621277   -0.534856
  C      0.103437   -0.660733   -1.327017
  H     -2.086769    0.000867    2.433466
  H     -1.721796    0.583016   -0.710891
  H     -0.152421    1.784267    1.091435
  H      2.422223    0.703787    0.829963
  H      2.183620   -1.313920   -0.775394
  H      0.265942   -0.278208   -2.349174
  H     -0.343069   -1.664877   -1.403857

 Total Charge           Charge          ....    0
 Multiplicity           Mult            ....    2
 Number of Electrons    NEL             ....   53
 Basis Dimension        Dim             ....  133

ORBITAL ENERGIES
----------------
                 SPIN UP ORBITALS
  NO   OCC          E(Eh)            E(eV)
   0   1.0000     -19.238586      -523.5085
   1   1.0000     -19.204777      -522.5886
   2   1.0000     -10.292947      -280.0853
   3   1.0000     -10.289597      -279.9942
   4   1.0000     -10.245528      -278.7950
   5   1.0000     -10.243620      -278.7431
   6   1.0000     -10.237908      -278.5876
   7   1.0000      -1.137760       -30.9600
   8   1.0000      -0.961514       -26.1641
   9   1.0000      -0.846374       -23.0310
  10   1.0000      -0.754648       -20.5350
  11   1.0000      -0.681855       -18.5542
  12   1.0000      -0.602783       -16.4026
  13   1.0000      -0.571257       -15.5447
  14   1.0000      -0.566469       -15.4144
  15   1.0000      -0.478748       -13.0274
  16   1.0000      -0.471196       -12.8219
  17   1.0000      -0.441220       -12.0062
  18   1.0000      -0.433037       -11.7835
  19   1.0000      -0.413728       -11.2581
  20   1.0000      -0.401922       -10.9368
  21   1.0000      -0.385246       -10.4831
  22   1.0000      -0.359137        -9.7726
  23   1.0000      -0.330124        -8.9831
  24   1.0000      -0.295739        -8.0475
  25   1.0000      -0.289326        -7.8730
  26   1.0000      -0.246749        -6.7144
  27   0.0000      -0.008276        -0.2252
  28   0.0000       0.076898         2.0925
  29   0.0000       0.099530         2.7083
  30   0.0000       0.109241         2.9726
  31   0.0000       0.114035         3.1031

                 SPIN DOWN ORBITALS
  NO   OCC          E(Eh)            E(eV)
   0   1.0000     -19.232909      -523.3541
   1   1.0000     -19.179977      -521.9137
   2   1.0000     -10.293067      -280.0886
   3   1.0000     -10.289722      -279.9976
   4   1.0000     -10.245512      -278.7946
   5   1.0000     -10.243414      -278.7375
   6   1.0000     -10.237783      -278.5842
   7   1.0000      -1.130402       -30.7598
   8   1.0000      -0.896666       -24.3995
   9   1.0000      -0.843275       -22.9467
  10   1.0000      -0.754343       -20.5267
  11   1.0000      -0.678985       -18.4761
  12   1.0000      -0.601977       -16.3806
  13   1.0000      -0.569550       -15.4982
  14   1.0000      -0.562155       -15.2970
  15   1.0000      -0.473673       -12.8893
  16   1.0000      -0.470197       -12.7947
  17   1.0000      -0.435451       -11.8492
  18   1.0000      -0.418218       -11.3803
  19   1.0000      -0.408203       -11.1078
  20   1.0000      -0.393342       -10.7034
  21   1.0000      -0.379195       -10.3184
  22   1.0000      -0.331254        -9.0139
  23   1.0000      -0.302530        -8.2323
  24   1.0000      -0.265984        -7.2378
  25   1.0000      -0.254443        -6.9238
  26   0.0000      -0.067538        -1.8378
  27   0.0000      -0.007118        -0.1937
  28   0.0000       0.078429         2.1342
  29   0.0000       0.102296         2.7836
  30   0.0000       0.111065         3.0222

MULLIKEN ATOMIC CHARGES AND SPIN POPULATIONS
--------------------------------------------
   0 O :   -0.264520    0.889671
   1 O :   -0.296453    0.129884
   2 C :    0.011716   -0.008134
   3 C :    0.076344   -0.006969
   4 C :    0.022251    0.004224
   5 C :   -0.137267    0.011003
   6 C :    0.109523   -0.000165
   7 H :    0.167183   -0.023284
   8 H :    0.066320    0.001975
   9 H :    0.045312    0.002598
  10 H :    0.035951   -0.000049
  11 H :    0.032160   -0.000615
  12 H :    0.064868   -0.000131
  13 H :    0.066613   -0.000006
Sum of atomic charges         :    0.0000000

LOEWDIN ATOMIC CHARGES AND SPIN POPULATIONS
-------------------------------------------
   0 O :   -0.163222    0.848573
   1 O :   -0.095813    0.140324
   2 C :    0.056497   -0.003211
   3 C :    0.051954   -0.003518
   4 C :   -0.057111    0.004013
   5 C :   -0.004113    0.008371
   6 C :   -0.047737    0.000360
   7 H :    0.048468    0.002864
   8 H :    0.028604    0.000966
   9 H :    0.027639    0.001310
  10 H :    0.034435    0.000255
  11 H :    0.025880   -0.000078
  12 H :    0.045384   -0.000146
  13 H :    0.049134   -0.000083

  Mayer bond orders larger than 0.100000
B(  0-O ,  1-O ) :   0.1836 B(  0-O ,  7-H ) :   0.9880 B(  1-O ,  2-C ) :   0.9123
B(  1-O ,  3-C ) :   0.9016 B(  2-C ,  3-C ) :   1.0212 B(  2-C ,  6-C ) :   0.9997
B(  2-C ,  8-H ) :   0.9645 B(  3-C ,  4-C ) :   0.9673 B(  3-C ,  9-H ) :   0.9780
B(  4-C ,  5-C ) :   1.8321 B(  4-C , 10-H ) :   0.9955 B(  5-C ,  6-C ) :   1.0212
B(  5-C , 11-H ) :   0.9665 B(  6-C , 12-H ) :   0.9252 B(  6-C , 13-H ) :   0.9218

Dispersion correction           -0.009797812
FINAL SINGLE POINT ENERGY      -344.371667862174
Dispersion correction            ... done

DIPOLE MOMENT
-------------
                                X             Y             Z
Electronic contribution:     -0.96426       0.46190       1.83256
Nuclear contribution   :      1.70075      -0.28790      -2.07952
                        -----------------------------------------
Total Dipole Moment    :      0.73649       0.17399      -0.24696
                        -----------------------------------------
Magnitude (a.u.)       :      0.79604
Magnitude (Debye)      :      2.02338

Rotational constants in cm-1:     0.200260     0.070786     0.059860
Rotational constants in MHz :  6003.634797  2122.118310  1794.561663

                             ****ORCA TERMINATED NORMALLY****
TOTAL RUN TIME: 0 days 0 hours 1 minutes 16 seconds 315 msec
