                         Program Version 5.0.4 -  RELEASE  -
|  1> ! EnGrad PBE0 RIJCOSX D3BJ def2-SVP def2/J
|  2> %output
|  3> xyzfile=True
|  4> end
|  5> %scf
|  6> maxiter 250
|  7> end
|  8> %output
|  9> Print[P_Hirshfeld] = 1
| 10> end
| 11> % maxcore
| 12> 4000
| 13> *xyz 0 2
| 14> O   -2.49279624   0.22163584   1.57902671
| 15> O   -0.62713734  -0.29137673   0.90660485
| 16> C   -0.73065480   0.22019054  -0.45683359
| 17> C    0.15239396   0.90345167   0.52070779
| 18> C    1.53019640   0.42881605   0.27584848
| 19> C    1.49447346  -0.64550107  -0.62617699
| 20> C    0.10614423  -0.65657682  -1.32305815
| 21> H   -2.08749293   0.00481180   2.43466431
| 22> H   -1.72426837   0.58021437  -0.70408523
| 23> H   -0.15177293   1.78670619   1.08860444
| 24> H    2.42190892   0.70452246   0.83038610
| 25> H    2.18508102  -1.31316133  -0.77333417
| 26> H    0.26665216  -0.27858893  -2.34866608
| 27> H   -0.34260729  -1.66479352  -1.40350935
| 28> *
| 29>
| 30>                          ****END OF INPUT****

CARTESIAN COORDINATES (ANGSTROEM)
---------------------------------
  O     -2.492796    0.221636    1.579027
  O     -0.627137   -0.291377    0.906605
  C     -0.730655    0.220191   -0.456834
  C      0.152394    0.903452    0.520708
  C      1.530196    0.428816    0.275848
  C      1.494473   -0.645501   -0.626177
  C      0.106144   -0.656577   -1.323058
  H     -2.087493    0.004812    2.434664
  H     -1.724268    0.580214   -0.704085
  H     -0.151773    1.786706    1.088604
  H      2.421909    0.704522    0.830386
  H      2.185081   -1.313161   -0.773334
  H      0.266652   -0.278589   -2.348666
  H     -0.342607   -1.664794   -1.403509

 Total Charge           Charge          ....    0
 Multiplicity           Mult            ....    2
 Number of Electrons    NEL             ....   53
 Basis Dimension        Dim             ....  133

ORBITAL ENERGIES
----------------
                 SPIN UP ORBITALS
  NO   OCC          E(Eh)            E(eV)
   0   1.0000     -19.240490      -523.5603
   1   1.0000     -19.194945      -522.3210
   2   1.0000     -10.299596      -280.2663
   3   1.0000     -10.295531      -280.1556
   4   1.0000     -10.253595      -279.0145
   5   1.0000     -10.252646      -278.9887
   6   1.0000     -10.251741      -278.9640
   7   1.0000      -1.102121       -29.9902
   8   1.0000      -0.952302       -25.9135
   9   1.0000      -0.839075       -22.8324
  10   1.0000      -0.746417       -20.3110
  11   1.0000      -0.694353       -18.8943
  12   1.0000      -0.601601       -16.3704
  13   1.0000      -0.586204       -15.9514
  14   1.0000      -0.559944       -15.2368
  15   1.0000      -0.479886       -13.0584
  16   1.0000      -0.463939       -12.6244
  17   1.0000      -0.439749       -11.9662
  18   1.0000      -0.424360       -11.5474
  19   1.0000      -0.418880       -11.3983
  20   1.0000      -0.405925       -11.0458
  21   1.0000      -0.375505       -10.2180
  22   1.0000      -0.368475       -10.0267
  23   1.0000      -0.332450        -9.0464
  24   1.0000      -0.286464        -7.7951
  25   1.0000      -0.278441        -7.5768
  26   1.0000      -0.247480        -6.7343
  27   0.0000      -0.025079        -0.6824
  28   0.0000       0.079403         2.1607
  29   0.0000       0.091839         2.4991
  30   0.0000       0.105292         2.8651
  31   0.0000       0.112506         3.0614

                 SPIN DOWN ORBITALS
  NO   OCC          E(Eh)            E(eV)
   0   1.0000     -19.234035      -523.3847
   1   1.0000     -19.170326      -521.6511
   2   1.0000     -10.299675      -280.2684
   3   1.0000     -10.295717      -280.1607
   4   1.0000     -10.253592      -279.0144
   5   1.0000     -10.252730      -278.9910
   6   1.0000     -10.251341      -278.9532
   7   1.0000      -1.093312       -29.7505
   8   1.0000      -0.889712       -24.2103
   9   1.0000      -0.835349       -22.7310
  10   1.0000      -0.746358       -20.3094
  11   1.0000      -0.690922       -18.8009
  12   1.0000      -0.600645       -16.3444
  13   1.0000      -0.585389       -15.9292
  14   1.0000      -0.555916       -15.1273
  15   1.0000      -0.473072       -12.8729
  16   1.0000      -0.462212       -12.5774
  17   1.0000      -0.432509       -11.7692
  18   1.0000      -0.417349       -11.3567
  19   1.0000      -0.416785       -11.3413
  20   1.0000      -0.389504       -10.5989
  21   1.0000      -0.374665       -10.1951
  22   1.0000      -0.337229        -9.1765
  23   1.0000      -0.300206        -8.1690
  24   1.0000      -0.260706        -7.0942
  25   1.0000      -0.256924        -6.9913
  26   0.0000      -0.054814        -1.4916
  27   0.0000      -0.021793        -0.5930
  28   0.0000       0.081342         2.2134
  29   0.0000       0.094047         2.5591
  30   0.0000       0.106214         2.8902

MULLIKEN ATOMIC CHARGES AND SPIN POPULATIONS
--------------------------------------------
   0 O :   -0.278136    0.872069
   1 O :   -0.324695    0.146754
   2 C :    0.032437   -0.010734
   3 C :    0.076337   -0.003620
   4 C :    0.024256   -0.013250
   5 C :   -0.060478    0.027394
   6 C :    0.074536   -0.001367
   7 H :    0.166674   -0.022245
   8 H :    0.074657    0.002666
   9 H :    0.055431    0.002423
  10 H :    0.037200    0.000809
  11 H :   -0.022914   -0.001218
  12 H :    0.070905    0.000155
  13 H :    0.073791    0.000165
Sum of atomic charges         :   -0.0000000

LOEWDIN ATOMIC CHARGES AND SPIN POPULATIONS
-------------------------------------------
   0 O :   -0.181865    0.830561
   1 O :   -0.132403    0.159795
   2 C :    0.079041   -0.005685
   3 C :    0.065039   -0.002664
   4 C :   -0.047478   -0.008521
   5 C :    0.029203    0.020632
   6 C :   -0.046192    0.000123
   7 H :    0.046549    0.002514
   8 H :    0.033462    0.001263
   9 H :    0.031645    0.001171
  10 H :    0.030653    0.000292
  11 H :   -0.003784    0.000342
  12 H :    0.046546    0.000119
  13 H :    0.049584    0.000059

  Mayer bond orders larger than 0.100000
B(  0-O ,  1-O ) :   0.2085 B(  0-O ,  7-H ) :   0.9876 B(  1-O ,  2-C ) :   0.8963
B(  1-O ,  3-C ) :   0.8764 B(  2-C ,  3-C ) :   1.0224 B(  2-C ,  6-C ) :   1.0069
B(  2-C ,  8-H ) :   0.9613 B(  3-C ,  4-C ) :   0.9828 B(  3-C ,  9-H ) :   0.9716
B(  4-C ,  5-C ) :   1.8056 B(  4-C , 10-H ) :   0.9957 B(  5-C ,  6-C ) :   1.0051
B(  5-C , 11-H ) :   1.0007 B(  6-C , 12-H ) :   0.9283 B(  6-C , 13-H ) :   0.9279

Dispersion correction           -0.009778818
FINAL SINGLE POINT ENERGY      -344.364874403695
Dispersion correction            ... done

DIPOLE MOMENT
-------------
                                X             Y             Z
Electronic contribution:     -0.83190       0.43159       1.71102
Nuclear contribution   :      1.72997      -0.28398      -2.08648
                        -----------------------------------------
Total Dipole Moment    :      0.89807       0.14761      -0.37547
                        -----------------------------------------
Magnitude (a.u.)       :      0.98453
Magnitude (Debye)      :      2.50248

Rotational constants in cm-1:     0.199779     0.067385     0.057462
Rotational constants in MHz :  5989.213982  2020.142027  1722.681986

                             ****ORCA TERMINATED NORMALLY****
TOTAL RUN TIME: 0 days 0 hours 1 minutes 10 seconds 198 msec
