                         Program Version 5.0.4 -  RELEASE  -
|  1> ! EnGrad PBE0 RIJCOSX D3BJ def2-SVP def2/J
|  2> %output
|  3> xyzfile=True
|  4> end
|  5> %scf
|  6> maxiter 250
|  7> end
|  8> %output
|  9> Print[P_Hirshfeld] = 1
| 10> end
| 11> % maxcore
| 12> 4000
| 13> *xyz 0 2
| 14> O   -2.49704973   0.22330296   1.58150071
| 15> O   -0.62249346  -0.28537332   0.89773741
| 16> C   -0.72699373   0.21729813  -0.44679680
| 17> C    0.14931956   0.89720786   0.52141851
| 18> C    1.53217991   0.41283957   0.26420953
| 19> C    1.45801707  -0.60332207  -0.61045698
| 20> C    0.11418977  -0.66079935  -1.32335880
| 21> H   -2.08839728   0.00505091   2.43431209
| 22> H   -1.72525424   0.58089738  -0.70511009
| 23> H   -0.15092613   1.78721948   1.08753836
| 24> H    2.42215531   0.70550788   0.83194650
| 25> H    2.21246497  -1.33710184  -0.78042232
| 26> H    0.26481789  -0.27827208  -2.34878845
| 27> H   -0.34188281  -1.66410285  -1.40356361
| 28> *
| 29>
| 30>                          ****END OF INPUT****

CARTESIAN COORDINATES (ANGSTROEM)
---------------------------------
  O     -2.497050    0.223303    1.581501
  O     -0.622493   -0.285373    0.897737
  C     -0.726994    0.217298   -0.446797
  C      0.149320    0.897208    0.521419
  C      1.532180    0.412840    0.264210
  C      1.458017   -0.603322   -0.610457
  C      0.114190   -0.660799   -1.323359
  H     -2.088397    0.005051    2.434312
  H     -1.725254    0.580897   -0.705110
  H     -0.150926    1.787219    1.087538
  H      2.422155    0.705508    0.831947
  H      2.212465   -1.337102   -0.780422
  H      0.264818   -0.278272   -2.348788
  H     -0.341883   -1.664103   -1.403564

 Total Charge           Charge          ....    0
 Multiplicity           Mult            ....    2
 Number of Electrons    NEL             ....   53
 Basis Dimension        Dim             ....  133

ORBITAL ENERGIES
----------------
                 SPIN UP ORBITALS
  NO   OCC          E(Eh)            E(eV)
   0   1.0000     -19.240131      -523.5506
   1   1.0000     -19.197292      -522.3849
   2   1.0000     -10.297167      -280.2001
   3   1.0000     -10.293259      -280.0938
   4   1.0000     -10.250945      -278.9424
   5   1.0000     -10.249406      -278.9005
   6   1.0000     -10.245634      -278.7979
   7   1.0000      -1.112968       -30.2854
   8   1.0000      -0.954902       -25.9842
   9   1.0000      -0.847253       -23.0549
  10   1.0000      -0.747548       -20.3418
  11   1.0000      -0.688578       -18.7372
  12   1.0000      -0.601596       -16.3703
  13   1.0000      -0.574752       -15.6398
  14   1.0000      -0.561642       -15.2830
  15   1.0000      -0.481378       -13.0990
  16   1.0000      -0.463975       -12.6254
  17   1.0000      -0.436528       -11.8785
  18   1.0000      -0.424417       -11.5490
  19   1.0000      -0.420421       -11.4402
  20   1.0000      -0.403266       -10.9734
  21   1.0000      -0.380665       -10.3584
  22   1.0000      -0.365974        -9.9587
  23   1.0000      -0.332114        -9.0373
  24   1.0000      -0.289052        -7.8655
  25   1.0000      -0.281261        -7.6535
  26   1.0000      -0.252287        -6.8651
  27   0.0000      -0.012576        -0.3422
  28   0.0000       0.076385         2.0785
  29   0.0000       0.096611         2.6289
  30   0.0000       0.107638         2.9290
  31   0.0000       0.110912         3.0181

                 SPIN DOWN ORBITALS
  NO   OCC          E(Eh)            E(eV)
   0   1.0000     -19.233902      -523.3811
   1   1.0000     -19.172551      -521.7116
   2   1.0000     -10.297255      -280.2026
   3   1.0000     -10.293429      -280.0984
   4   1.0000     -10.250933      -278.9421
   5   1.0000     -10.249119      -278.8927
   6   1.0000     -10.245626      -278.7976
   7   1.0000      -1.104620       -30.0582
   8   1.0000      -0.891817       -24.2676
   9   1.0000      -0.843578       -22.9549
  10   1.0000      -0.747393       -20.3376
  11   1.0000      -0.685143       -18.6437
  12   1.0000      -0.600799       -16.3486
  13   1.0000      -0.573673       -15.6104
  14   1.0000      -0.557401       -15.1677
  15   1.0000      -0.474391       -12.9088
  16   1.0000      -0.462764       -12.5925
  17   1.0000      -0.427023       -11.6199
  18   1.0000      -0.421194       -11.4613
  19   1.0000      -0.412900       -11.2356
  20   1.0000      -0.389881       -10.6092
  21   1.0000      -0.378364       -10.2958
  22   1.0000      -0.337480        -9.1833
  23   1.0000      -0.298678        -8.1274
  24   1.0000      -0.266479        -7.2513
  25   1.0000      -0.259251        -7.0546
  26   0.0000      -0.056822        -1.5462
  27   0.0000      -0.010409        -0.2832
  28   0.0000       0.077974         2.1218
  29   0.0000       0.099346         2.7033
  30   0.0000       0.108242         2.9454

MULLIKEN ATOMIC CHARGES AND SPIN POPULATIONS
--------------------------------------------
   0 O :   -0.273153    0.878692
   1 O :   -0.318351    0.140395
   2 C :    0.021930   -0.009738
   3 C :    0.068541   -0.004294
   4 C :    0.030916   -0.005392
   5 C :   -0.121856    0.018338
   6 C :    0.086798   -0.000574
   7 H :    0.167021   -0.022470
   8 H :    0.074140    0.002904
   9 H :    0.053793    0.002626
  10 H :    0.037814    0.000444
  11 H :    0.030971   -0.000992
  12 H :    0.069354    0.000011
  13 H :    0.072082    0.000049
Sum of atomic charges         :   -0.0000000

LOEWDIN ATOMIC CHARGES AND SPIN POPULATIONS
-------------------------------------------
   0 O :   -0.176092    0.837041
   1 O :   -0.122196    0.153310
   2 C :    0.070460   -0.004757
   3 C :    0.062010   -0.002571
   4 C :   -0.054699   -0.002618
   5 C :    0.001787    0.013647
   6 C :   -0.047711    0.000397
   7 H :    0.046709    0.002592
   8 H :    0.032849    0.001462
   9 H :    0.030724    0.001309
  10 H :    0.034600    0.000272
  11 H :    0.024997   -0.000062
  12 H :    0.047032    0.000001
  13 H :    0.049529   -0.000023

  Mayer bond orders larger than 0.100000
B(  0-O ,  1-O ) :   0.2003 B(  0-O ,  7-H ) :   0.9877 B(  1-O ,  2-C ) :   0.9034
B(  1-O ,  3-C ) :   0.8838 B(  2-C ,  3-C ) :   1.0275 B(  2-C ,  6-C ) :   1.0043
B(  2-C ,  8-H ) :   0.9584 B(  3-C ,  4-C ) :   0.9728 B(  3-C ,  9-H ) :   0.9705
B(  4-C ,  5-C ) :   1.8233 B(  4-C , 10-H ) :   0.9955 B(  5-C ,  6-C ) :   1.0136
B(  5-C , 11-H ) :   0.9775 B(  6-C , 12-H ) :   0.9274 B(  6-C , 13-H ) :   0.9266

Dispersion correction           -0.009774880
FINAL SINGLE POINT ENERGY      -344.382880362876
Dispersion correction            ... done

DIPOLE MOMENT
-------------
                                X             Y             Z
Electronic contribution:     -0.89622       0.46485       1.75281
Nuclear contribution   :      1.77242      -0.32017      -2.09848
                        -----------------------------------------
Total Dipole Moment    :      0.87619       0.14468      -0.34567
                        -----------------------------------------
Magnitude (a.u.)       :      0.95296
Magnitude (Debye)      :      2.42224

Rotational constants in cm-1:     0.202970     0.067859     0.057808
Rotational constants in MHz :  6084.886134  2034.347757  1733.042349

                             ****ORCA TERMINATED NORMALLY****
TOTAL RUN TIME: 0 days 0 hours 1 minutes 16 seconds 336 msec
