                         Program Version 5.0.4 -  RELEASE  -
|  1> ! EnGrad PBE0 RIJCOSX D3BJ def2-SVP def2/J
|  2> %output
|  3> xyzfile=True
|  4> end
|  5> %scf
|  6> maxiter 250
|  7> end
|  8> %output
|  9> Print[P_Hirshfeld] = 1
| 10> end
| 11> % maxcore
| 12> 4000
| 13> *xyz 0 2
| 14> O   -2.25669638  -0.57731878   1.57796524
| 15> O   -0.57277703  -0.23060045   0.89273917
| 16> C   -0.71491327   0.30693490  -0.38396602
| 17> C    0.25862735   1.05099653   0.45772572
| 18> C    1.55829032   0.43806328   0.26167410
| 19> C    1.33604030  -0.64558473  -0.50804899
| 20> C    0.04615847  -0.63756739  -1.26167612
| 21> H   -2.29044165   0.24741135   2.08757961
| 22> H   -1.70077655   0.70425551  -0.64756613
| 23> H    0.03086976   1.96975461   1.00195285
| 24> H    2.46696990   0.67436092   0.81449555
| 25> H    2.10189253  -1.40139727  -0.70637349
| 26> H    0.19928096  -0.28625896  -2.29679317
| 27> H   -0.46252663  -1.61295758  -1.28972026
| 28> *
| 29>
| 30>                          ****END OF INPUT****

CARTESIAN COORDINATES (ANGSTROEM)
---------------------------------
  O     -2.256696   -0.577319    1.577965
  O     -0.572777   -0.230600    0.892739
  C     -0.714913    0.306935   -0.383966
  C      0.258627    1.050997    0.457726
  C      1.558290    0.438063    0.261674
  C      1.336040   -0.645585   -0.508049
  C      0.046158   -0.637567   -1.261676
  H     -2.290442    0.247411    2.087580
  H     -1.700777    0.704256   -0.647566
  H      0.030870    1.969755    1.001953
  H      2.466970    0.674361    0.814496
  H      2.101893   -1.401397   -0.706373
  H      0.199281   -0.286259   -2.296793
  H     -0.462527   -1.612958   -1.289720

 Total Charge           Charge          ....    0
 Multiplicity           Mult            ....    2
 Number of Electrons    NEL             ....   53
 Basis Dimension        Dim             ....  133

ORBITAL ENERGIES
----------------
                 SPIN UP ORBITALS
  NO   OCC          E(Eh)            E(eV)
   0   1.0000     -19.242830      -523.6240
   1   1.0000     -19.175862      -521.8017
   2   1.0000     -10.303660      -280.3768
   3   1.0000     -10.296760      -280.1891
   4   1.0000     -10.251919      -278.9689
   5   1.0000     -10.247477      -278.8480
   6   1.0000     -10.245052      -278.7820
   7   1.0000      -1.107957       -30.1490
   8   1.0000      -0.943060       -25.6620
   9   1.0000      -0.850246       -23.1364
  10   1.0000      -0.757174       -20.6038
  11   1.0000      -0.699126       -19.0242
  12   1.0000      -0.598377       -16.2827
  13   1.0000      -0.574547       -15.6342
  14   1.0000      -0.568934       -15.4815
  15   1.0000      -0.487243       -13.2586
  16   1.0000      -0.475328       -12.9343
  17   1.0000      -0.434748       -11.8301
  18   1.0000      -0.418743       -11.3946
  19   1.0000      -0.412929       -11.2364
  20   1.0000      -0.402788       -10.9604
  21   1.0000      -0.380663       -10.3584
  22   1.0000      -0.370120       -10.0715
  23   1.0000      -0.327103        -8.9009
  24   1.0000      -0.287695        -7.8286
  25   1.0000      -0.264227        -7.1900
  26   1.0000      -0.216346        -5.8871
  27   0.0000      -0.024703        -0.6722
  28   0.0000       0.066939         1.8215
  29   0.0000       0.085739         2.3331
  30   0.0000       0.099014         2.6943
  31   0.0000       0.110927         3.0185

                 SPIN DOWN ORBITALS
  NO   OCC          E(Eh)            E(eV)
   0   1.0000     -19.235889      -523.4352
   1   1.0000     -19.152471      -521.1652
   2   1.0000     -10.302473      -280.3445
   3   1.0000     -10.297134      -280.1993
   4   1.0000     -10.250273      -278.9241
   5   1.0000     -10.247503      -278.8487
   6   1.0000     -10.245911      -278.8054
   7   1.0000      -1.098606       -29.8946
   8   1.0000      -0.889702       -24.2100
   9   1.0000      -0.841877       -22.9086
  10   1.0000      -0.756897       -20.5962
  11   1.0000      -0.693834       -18.8802
  12   1.0000      -0.596950       -16.2438
  13   1.0000      -0.573023       -15.5927
  14   1.0000      -0.563680       -15.3385
  15   1.0000      -0.476005       -12.9528
  16   1.0000      -0.471886       -12.8407
  17   1.0000      -0.429572       -11.6893
  18   1.0000      -0.415141       -11.2966
  19   1.0000      -0.411492       -11.1973
  20   1.0000      -0.388878       -10.5819
  21   1.0000      -0.372753       -10.1431
  22   1.0000      -0.349382        -9.5072
  23   1.0000      -0.302693        -8.2367
  24   1.0000      -0.259569        -7.0632
  25   1.0000      -0.241836        -6.5807
  26   0.0000      -0.042356        -1.1526
  27   0.0000      -0.003932        -0.1070
  28   0.0000       0.069334         1.8867
  29   0.0000       0.090164         2.4535
  30   0.0000       0.100642         2.7386

MULLIKEN ATOMIC CHARGES AND SPIN POPULATIONS
--------------------------------------------
   0 O :   -0.291441    0.802376
   1 O :   -0.294168    0.133364
   2 C :    0.039905   -0.017489
   3 C :    0.065055    0.059592
   4 C :    0.020946   -0.067040
   5 C :   -0.119436    0.108397
   6 C :    0.111194   -0.004233
   7 H :    0.148365   -0.018038
   8 H :    0.046545    0.005656
   9 H :    0.055953   -0.001518
  10 H :    0.039298    0.002826
  11 H :    0.038304   -0.005703
  12 H :    0.063835    0.000754
  13 H :    0.075645    0.001055
Sum of atomic charges         :   -0.0000000

LOEWDIN ATOMIC CHARGES AND SPIN POPULATIONS
-------------------------------------------
   0 O :   -0.206397    0.753969
   1 O :   -0.093982    0.157444
   2 C :    0.057210   -0.008051
   3 C :    0.079242    0.046432
   4 C :   -0.056817   -0.044180
   5 C :    0.010681    0.083145
   6 C :   -0.047196    0.000229
   7 H :    0.035682    0.005584
   8 H :    0.023631    0.003119
   9 H :    0.034436    0.000439
  10 H :    0.036843    0.000274
  11 H :    0.029259   -0.000256
  12 H :    0.043843    0.001122
  13 H :    0.053566    0.000731

  Mayer bond orders larger than 0.100000
B(  0-O ,  1-O ) :   0.2496 B(  0-O ,  7-H ) :   0.9995 B(  1-O ,  2-C ) :   0.8845
B(  1-O ,  3-C ) :   0.8159 B(  2-C ,  3-C ) :   0.9884 B(  2-C ,  6-C ) :   0.9993
B(  2-C ,  8-H ) :   0.9617 B(  3-C ,  4-C ) :   1.0142 B(  3-C ,  9-H ) :   0.9902
B(  4-C ,  5-C ) :   1.7941 B(  4-C , 10-H ) :   0.9963 B(  5-C ,  6-C ) :   1.0143
B(  5-C , 11-H ) :   0.9704 B(  6-C , 12-H ) :   0.9242 B(  6-C , 13-H ) :   0.9235

Dispersion correction           -0.009856520
FINAL SINGLE POINT ENERGY      -344.347380318796
Dispersion correction            ... done

DIPOLE MOMENT
-------------
                                X             Y             Z
Electronic contribution:     -0.55511       0.30857       1.71586
Nuclear contribution   :      1.28602       0.69553      -2.35069
                        -----------------------------------------
Total Dipole Moment    :      0.73090       1.00410      -0.63483
                        -----------------------------------------
Magnitude (a.u.)       :      1.39479
Magnitude (Debye)      :      3.54528

Rotational constants in cm-1:     0.181382     0.073870     0.063952
Rotational constants in MHz :  5437.689052  2214.568632  1917.222964

                             ****ORCA TERMINATED NORMALLY****
TOTAL RUN TIME: 0 days 0 hours 1 minutes 19 seconds 91 msec
