                         Program Version 5.0.4 -  RELEASE  -
|  1> ! EnGrad PBE0 RIJCOSX D3BJ def2-SVP def2/J
|  2> %output
|  3> xyzfile=True
|  4> end
|  5> %scf
|  6> maxiter 250
|  7> end
|  8> %output
|  9> Print[P_Hirshfeld] = 1
| 10> end
| 11> % maxcore
| 12> 4000
| 13> *xyz 0 2
| 14> O   -2.37351005  -0.61226869   1.60723017
| 15> O   -0.52339961  -0.08732438   0.91522793
| 16> C   -0.70359892   0.30847803  -0.38386932
| 17> C    0.20658759   0.98987558   0.47238400
| 18> C    1.56913740   0.41338908   0.24197134
| 19> C    1.44236491  -0.65327671  -0.56627046
| 20> C    0.04337596  -0.63064539  -1.26453879
| 21> H   -2.28967914   0.22258482   2.09275045
| 22> H   -1.70025715   0.71010991  -0.64507165
| 23> H    0.03328785   1.97342371   0.99577070
| 24> H    2.46820552   0.67490316   0.81229608
| 25> H    2.09682702  -1.40690805  -0.69774028
| 26> H    0.19798634  -0.29161512  -2.29573168
| 27> H   -0.46725988  -1.61082169  -1.28435940
| 28> *
| 29>
| 30>                          ****END OF INPUT****

CARTESIAN COORDINATES (ANGSTROEM)
---------------------------------
  O     -2.373510   -0.612269    1.607230
  O     -0.523400   -0.087324    0.915228
  C     -0.703599    0.308478   -0.383869
  C      0.206588    0.989876    0.472384
  C      1.569137    0.413389    0.241971
  C      1.442365   -0.653277   -0.566270
  C      0.043376   -0.630645   -1.264539
  H     -2.289679    0.222585    2.092750
  H     -1.700257    0.710110   -0.645072
  H      0.033288    1.973424    0.995771
  H      2.468206    0.674903    0.812296
  H      2.096827   -1.406908   -0.697740
  H      0.197986   -0.291615   -2.295732
  H     -0.467260   -1.610822   -1.284359

 Total Charge           Charge          ....    0
 Multiplicity           Mult            ....    2
 Number of Electrons    NEL             ....   53
 Basis Dimension        Dim             ....  133

ORBITAL ENERGIES
----------------
                 SPIN UP ORBITALS
  NO   OCC          E(Eh)            E(eV)
   0   1.0000     -19.236636      -523.4555
   1   1.0000     -19.208252      -522.6831
   2   1.0000     -10.295576      -280.1569
   3   1.0000     -10.289941      -280.0035
   4   1.0000     -10.245311      -278.7891
   5   1.0000     -10.240738      -278.6647
   6   1.0000     -10.239963      -278.6435
   7   1.0000      -1.163636       -31.6641
   8   1.0000      -0.967810       -26.3355
   9   1.0000      -0.839312       -22.8388
  10   1.0000      -0.746444       -20.3118
  11   1.0000      -0.686616       -18.6838
  12   1.0000      -0.606776       -16.5112
  13   1.0000      -0.583556       -15.8794
  14   1.0000      -0.567665       -15.4469
  15   1.0000      -0.485421       -13.2090
  16   1.0000      -0.472655       -12.8616
  17   1.0000      -0.448861       -12.2141
  18   1.0000      -0.430911       -11.7257
  19   1.0000      -0.421099       -11.4587
  20   1.0000      -0.399291       -10.8653
  21   1.0000      -0.371132       -10.0990
  22   1.0000      -0.365292        -9.9401
  23   1.0000      -0.324948        -8.8423
  24   1.0000      -0.299507        -8.1500
  25   1.0000      -0.288484        -7.8501
  26   1.0000      -0.252728        -6.8771
  27   0.0000      -0.002516        -0.0685
  28   0.0000       0.067100         1.8259
  29   0.0000       0.100752         2.7416
  30   0.0000       0.109364         2.9760
  31   0.0000       0.119382         3.2486

                 SPIN DOWN ORBITALS
  NO   OCC          E(Eh)            E(eV)
   0   1.0000     -19.232498      -523.3429
   1   1.0000     -19.182586      -521.9847
   2   1.0000     -10.295115      -280.1443
   3   1.0000     -10.290125      -280.0085
   4   1.0000     -10.245320      -278.7893
   5   1.0000     -10.240782      -278.6658
   6   1.0000     -10.239596      -278.6336
   7   1.0000      -1.158715       -31.5302
   8   1.0000      -0.900726       -24.5100
   9   1.0000      -0.836857       -22.7720
  10   1.0000      -0.746189       -20.3048
  11   1.0000      -0.682676       -18.5766
  12   1.0000      -0.605755       -16.4834
  13   1.0000      -0.582596       -15.8532
  14   1.0000      -0.562493       -15.3062
  15   1.0000      -0.477861       -13.0033
  16   1.0000      -0.471183       -12.8215
  17   1.0000      -0.442159       -12.0318
  18   1.0000      -0.422026       -11.4839
  19   1.0000      -0.405322       -11.0294
  20   1.0000      -0.396488       -10.7890
  21   1.0000      -0.369754       -10.0615
  22   1.0000      -0.338593        -9.2136
  23   1.0000      -0.301262        -8.1977
  24   1.0000      -0.266635        -7.2555
  25   1.0000      -0.260367        -7.0850
  26   0.0000      -0.067946        -1.8489
  27   0.0000       0.001116         0.0304
  28   0.0000       0.069341         1.8869
  29   0.0000       0.102094         2.7781
  30   0.0000       0.111276         3.0280

MULLIKEN ATOMIC CHARGES AND SPIN POPULATIONS
--------------------------------------------
   0 O :   -0.235195    0.919818
   1 O :   -0.274853    0.074919
   2 C :    0.043877   -0.008931
   3 C :    0.038338    0.017910
   4 C :    0.020252   -0.019465
   5 C :   -0.084627    0.037225
   6 C :    0.056611   -0.001392
   7 H :    0.163901   -0.023174
   8 H :    0.052682    0.002296
   9 H :    0.051173    0.001164
  10 H :    0.036512    0.001089
  11 H :   -0.003559   -0.001649
  12 H :    0.063962    0.000014
  13 H :    0.070926    0.000175
Sum of atomic charges         :    0.0000000

LOEWDIN ATOMIC CHARGES AND SPIN POPULATIONS
-------------------------------------------
   0 O :   -0.140584    0.877006
   1 O :   -0.071379    0.089948
   2 C :    0.038395   -0.003796
   3 C :    0.022195    0.015752
   4 C :   -0.048214   -0.013256
   5 C :    0.011102    0.028471
   6 C :   -0.041609   -0.000128
   7 H :    0.044543    0.002770
   8 H :    0.027640    0.001268
   9 H :    0.028909    0.001055
  10 H :    0.032189    0.000253
  11 H :    0.007727    0.000365
  12 H :    0.041379    0.000188
  13 H :    0.047706    0.000104

  Mayer bond orders larger than 0.100000
B(  0-O ,  1-O ) :   0.1308 B(  0-O ,  7-H ) :   0.9921 B(  1-O ,  2-C ) :   0.9221
B(  1-O ,  3-C ) :   0.9174 B(  2-C ,  3-C ) :   1.0246 B(  2-C ,  6-C ) :   1.0144
B(  2-C ,  8-H ) :   0.9580 B(  3-C ,  4-C ) :   0.9859 B(  3-C ,  9-H ) :   0.9644
B(  4-C ,  5-C ) :   1.8279 B(  4-C , 10-H ) :   0.9931 B(  5-C ,  6-C ) :   1.0108
B(  5-C , 11-H ) :   0.9927 B(  6-C , 12-H ) :   0.9341 B(  6-C , 13-H ) :   0.9290

Dispersion correction           -0.009820655
FINAL SINGLE POINT ENERGY      -344.360826090699
Dispersion correction            ... done

DIPOLE MOMENT
-------------
                                X             Y             Z
Electronic contribution:     -0.80756       0.22401       1.93218
Nuclear contribution   :      1.29258       0.62928      -2.33976
                        -----------------------------------------
Total Dipole Moment    :      0.48502       0.85329      -0.40758
                        -----------------------------------------
Magnitude (a.u.)       :      1.06277
Magnitude (Debye)      :      2.70133

Rotational constants in cm-1:     0.184198     0.069933     0.060832
Rotational constants in MHz :  5522.123362  2096.541269  1823.686212

                             ****ORCA TERMINATED NORMALLY****
TOTAL RUN TIME: 0 days 0 hours 1 minutes 21 seconds 828 msec
