                         Program Version 5.0.4 -  RELEASE  -
|  1> ! EnGrad PBE0 RIJCOSX D3BJ def2-SVP def2/J
|  2> %output
|  3> xyzfile=True
|  4> end
|  5> %scf
|  6> maxiter 250
|  7> end
|  8> %output
|  9> Print[P_Hirshfeld] = 1
| 10> end
| 11> % maxcore
| 12> 4000
| 13> *xyz 0 2
| 14> O   -2.37824750  -0.61357446   1.60843980
| 15> O   -0.53255741  -0.09556539   0.92705352
| 16> C   -0.71259771   0.30762390  -0.39619853
| 17> C    0.22386903   1.00679273   0.47956084
| 18> C    1.57215901   0.41280280   0.24083262
| 19> C    1.41926542  -0.63312813  -0.56622118
| 20> C    0.05177572  -0.63569470  -1.26248315
| 21> H   -2.29033137   0.22234827   2.09369052
| 22> H   -1.69816110   0.70917653  -0.64476937
| 23> H    0.03423344   1.96885440   0.99165844
| 24> H    2.46711812   0.67496998   0.81205765
| 25> H    2.11335448  -1.42330234  -0.70205015
| 26> H    0.19651332  -0.29091786  -2.29700670
| 27> H   -0.46625224  -1.61051272  -1.28449954
| 28> *
| 29>
| 30>                          ****END OF INPUT****

CARTESIAN COORDINATES (ANGSTROEM)
---------------------------------
  O     -2.378248   -0.613574    1.608440
  O     -0.532557   -0.095565    0.927054
  C     -0.712598    0.307624   -0.396199
  C      0.223869    1.006793    0.479561
  C      1.572159    0.412803    0.240833
  C      1.419265   -0.633128   -0.566221
  C      0.051776   -0.635695   -1.262483
  H     -2.290331    0.222348    2.093691
  H     -1.698161    0.709177   -0.644769
  H      0.034233    1.968854    0.991658
  H      2.467118    0.674970    0.812058
  H      2.113354   -1.423302   -0.702050
  H      0.196513   -0.290918   -2.297007
  H     -0.466252   -1.610513   -1.284500

 Total Charge           Charge          ....    0
 Multiplicity           Mult            ....    2
 Number of Electrons    NEL             ....   53
 Basis Dimension        Dim             ....  133

ORBITAL ENERGIES
----------------
                 SPIN UP ORBITALS
  NO   OCC          E(Eh)            E(eV)
   0   1.0000     -19.235294      -523.4190
   1   1.0000     -19.204938      -522.5929
   2   1.0000     -10.296220      -280.1744
   3   1.0000     -10.291821      -280.0547
   4   1.0000     -10.246226      -278.8140
   5   1.0000     -10.243011      -278.7265
   6   1.0000     -10.239613      -278.6340
   7   1.0000      -1.140832       -31.0436
   8   1.0000      -0.964054       -26.2332
   9   1.0000      -0.843243       -22.9458
  10   1.0000      -0.748705       -20.3733
  11   1.0000      -0.684952       -18.6385
  12   1.0000      -0.605419       -16.4743
  13   1.0000      -0.575981       -15.6733
  14   1.0000      -0.565908       -15.3992
  15   1.0000      -0.483744       -13.1633
  16   1.0000      -0.470570       -12.8048
  17   1.0000      -0.444302       -12.0901
  18   1.0000      -0.427802       -11.6411
  19   1.0000      -0.418804       -11.3962
  20   1.0000      -0.404622       -11.0103
  21   1.0000      -0.376458       -10.2439
  22   1.0000      -0.362272        -9.8579
  23   1.0000      -0.322424        -8.7736
  24   1.0000      -0.298847        -8.1321
  25   1.0000      -0.285322        -7.7640
  26   1.0000      -0.251885        -6.8541
  27   0.0000      -0.001975        -0.0537
  28   0.0000       0.068152         1.8545
  29   0.0000       0.099315         2.7025
  30   0.0000       0.108806         2.9608
  31   0.0000       0.113982         3.1016

                 SPIN DOWN ORBITALS
  NO   OCC          E(Eh)            E(eV)
   0   1.0000     -19.230997      -523.3020
   1   1.0000     -19.179399      -521.8980
   2   1.0000     -10.295688      -280.1599
   3   1.0000     -10.292020      -280.0601
   4   1.0000     -10.246236      -278.8143
   5   1.0000     -10.242457      -278.7114
   6   1.0000     -10.239824      -278.6398
   7   1.0000      -1.135541       -30.8996
   8   1.0000      -0.897784       -24.4300
   9   1.0000      -0.840426       -22.8692
  10   1.0000      -0.748462       -20.3667
  11   1.0000      -0.681071       -18.5329
  12   1.0000      -0.604470       -16.4485
  13   1.0000      -0.574994       -15.6464
  14   1.0000      -0.561261       -15.2727
  15   1.0000      -0.475540       -12.9401
  16   1.0000      -0.468858       -12.7583
  17   1.0000      -0.437267       -11.8986
  18   1.0000      -0.419590       -11.4176
  19   1.0000      -0.406193       -11.0531
  20   1.0000      -0.398999       -10.8573
  21   1.0000      -0.374084       -10.1793
  22   1.0000      -0.336163        -9.1475
  23   1.0000      -0.299842        -8.1591
  24   1.0000      -0.265114        -7.2141
  25   1.0000      -0.260057        -7.0765
  26   0.0000      -0.064918        -1.7665
  27   0.0000       0.002210         0.0601
  28   0.0000       0.070216         1.9107
  29   0.0000       0.101027         2.7491
  30   0.0000       0.110219         2.9992

MULLIKEN ATOMIC CHARGES AND SPIN POPULATIONS
--------------------------------------------
   0 O :   -0.240000    0.913521
   1 O :   -0.299575    0.078485
   2 C :    0.041936   -0.009661
   3 C :    0.048426    0.021646
   4 C :    0.028026   -0.020407
   5 C :   -0.116142    0.038987
   6 C :    0.076813   -0.001505
   7 H :    0.163429   -0.022922
   8 H :    0.049696    0.001949
   9 H :    0.047211    0.000412
  10 H :    0.035858    0.001095
  11 H :    0.026573   -0.001860
  12 H :    0.064820    0.000027
  13 H :    0.072928    0.000235
Sum of atomic charges         :   -0.0000000

LOEWDIN ATOMIC CHARGES AND SPIN POPULATIONS
-------------------------------------------
   0 O :   -0.146500    0.870933
   1 O :   -0.096520    0.094003
   2 C :    0.053942   -0.004569
   3 C :    0.038362    0.018422
   4 C :   -0.050924   -0.013546
   5 C :   -0.000110    0.029862
   6 C :   -0.044187   -0.000101
   7 H :    0.044173    0.002606
   8 H :    0.025149    0.001007
   9 H :    0.026402    0.000686
  10 H :    0.033184    0.000242
  11 H :    0.023538    0.000099
  12 H :    0.043686    0.000220
  13 H :    0.049805    0.000135

  Mayer bond orders larger than 0.100000
B(  0-O ,  1-O ) :   0.1391 B(  0-O ,  7-H ) :   0.9918 B(  1-O ,  2-C ) :   0.9171
B(  1-O ,  3-C ) :   0.8991 B(  2-C ,  3-C ) :   1.0156 B(  2-C ,  6-C ) :   1.0087
B(  2-C ,  8-H ) :   0.9633 B(  3-C ,  4-C ) :   0.9840 B(  3-C ,  9-H ) :   0.9722
B(  4-C ,  5-C ) :   1.8314 B(  4-C , 10-H ) :   0.9944 B(  5-C ,  6-C ) :   1.0148
B(  5-C , 11-H ) :   0.9790 B(  6-C , 12-H ) :   0.9307 B(  6-C , 13-H ) :   0.9264

Dispersion correction           -0.009805393
FINAL SINGLE POINT ENERGY      -344.371420646967
Dispersion correction            ... done

DIPOLE MOMENT
-------------
                                X             Y             Z
Electronic contribution:     -0.80442       0.28039       1.90430
Nuclear contribution   :      1.32501       0.59652      -2.35779
                        -----------------------------------------
Total Dipole Moment    :      0.52059       0.87691      -0.45349
                        -----------------------------------------
Magnitude (a.u.)       :      1.11608
Magnitude (Debye)      :      2.83686

Rotational constants in cm-1:     0.183226     0.069855     0.060643
Rotational constants in MHz :  5492.982944  2094.212574  1818.027959

                             ****ORCA TERMINATED NORMALLY****
TOTAL RUN TIME: 0 days 0 hours 1 minutes 28 seconds 567 msec
