                         Program Version 5.0.4 -  RELEASE  -
|  1> ! EnGrad PBE0 RIJCOSX D3BJ def2-SVP def2/J
|  2> %output
|  3> xyzfile=True
|  4> end
|  5> %scf
|  6> maxiter 250
|  7> end
|  8> %output
|  9> Print[P_Hirshfeld] = 1
| 10> end
| 11> % maxcore
| 12> 4000
| 13> *xyz 0 2
| 14> O   -2.30030866  -0.36157207   1.68098857
| 15> O   -0.54240920  -0.28390936   0.86654055
| 16> C   -0.73731083   0.22913629  -0.41672875
| 17> C    0.16826003   0.91191726   0.53747912
| 18> C    1.53148517   0.42155538   0.27680917
| 19> C    1.36318819  -0.61988642  -0.54057977
| 20> C    0.08139230  -0.64474308  -1.31016354
| 21> H   -2.17590648   0.49023390   2.12602995
| 22> H   -1.74803172   0.58094895  -0.64231304
| 23> H   -0.10311938   1.81240344   1.09472771
| 24> H    2.42901109   0.68644106   0.83411088
| 25> H    2.17078297  -1.31642106  -0.78820875
| 26> H    0.23102394  -0.25853585  -2.33281847
| 27> H   -0.36805742  -1.64747573  -1.38588095
| 28> *
| 29>
| 30>                          ****END OF INPUT****

CARTESIAN COORDINATES (ANGSTROEM)
---------------------------------
  O     -2.300309   -0.361572    1.680989
  O     -0.542409   -0.283909    0.866541
  C     -0.737311    0.229136   -0.416729
  C      0.168260    0.911917    0.537479
  C      1.531485    0.421555    0.276809
  C      1.363188   -0.619886   -0.540580
  C      0.081392   -0.644743   -1.310164
  H     -2.175906    0.490234    2.126030
  H     -1.748032    0.580949   -0.642313
  H     -0.103119    1.812403    1.094728
  H      2.429011    0.686441    0.834111
  H      2.170783   -1.316421   -0.788209
  H      0.231024   -0.258536   -2.332818
  H     -0.368057   -1.647476   -1.385881

 Total Charge           Charge          ....    0
 Multiplicity           Mult            ....    2
 Number of Electrons    NEL             ....   53
 Basis Dimension        Dim             ....  133

ORBITAL ENERGIES
----------------
                 SPIN UP ORBITALS
  NO   OCC          E(Eh)            E(eV)
   0   1.0000     -19.244470      -523.6687
   1   1.0000     -19.186693      -522.0965
   2   1.0000     -10.300213      -280.2831
   3   1.0000     -10.295307      -280.1495
   4   1.0000     -10.249169      -278.8941
   5   1.0000     -10.247177      -278.8399
   6   1.0000     -10.241416      -278.6831
   7   1.0000      -1.144548       -31.1447
   8   1.0000      -0.951196       -25.8834
   9   1.0000      -0.850244       -23.1363
  10   1.0000      -0.758076       -20.6283
  11   1.0000      -0.688469       -18.7342
  12   1.0000      -0.608516       -16.5586
  13   1.0000      -0.576340       -15.6830
  14   1.0000      -0.572532       -15.5794
  15   1.0000      -0.487582       -13.2678
  16   1.0000      -0.476687       -12.9713
  17   1.0000      -0.448743       -12.2109
  18   1.0000      -0.420027       -11.4295
  19   1.0000      -0.415784       -11.3141
  20   1.0000      -0.404116       -10.9966
  21   1.0000      -0.385621       -10.4933
  22   1.0000      -0.365200        -9.9376
  23   1.0000      -0.328795        -8.9470
  24   1.0000      -0.289802        -7.8859
  25   1.0000      -0.273467        -7.4414
  26   1.0000      -0.235227        -6.4009
  27   0.0000      -0.011078        -0.3015
  28   0.0000       0.065295         1.7768
  29   0.0000       0.093633         2.5479
  30   0.0000       0.104286         2.8378
  31   0.0000       0.113322         3.0837

                 SPIN DOWN ORBITALS
  NO   OCC          E(Eh)            E(eV)
   0   1.0000     -19.237320      -523.4741
   1   1.0000     -19.162299      -521.4327
   2   1.0000     -10.300078      -280.2794
   3   1.0000     -10.295554      -280.1563
   4   1.0000     -10.249134      -278.8931
   5   1.0000     -10.246645      -278.8254
   6   1.0000     -10.241529      -278.6862
   7   1.0000      -1.135544       -30.8997
   8   1.0000      -0.891574       -24.2610
   9   1.0000      -0.845011       -22.9939
  10   1.0000      -0.757749       -20.6194
  11   1.0000      -0.684057       -18.6141
  12   1.0000      -0.607420       -16.5287
  13   1.0000      -0.574340       -15.6286
  14   1.0000      -0.566646       -15.4192
  15   1.0000      -0.478155       -13.0113
  16   1.0000      -0.474778       -12.9194
  17   1.0000      -0.441570       -12.0157
  18   1.0000      -0.416819       -11.3422
  19   1.0000      -0.411560       -11.1991
  20   1.0000      -0.389634       -10.6025
  21   1.0000      -0.378262       -10.2930
  22   1.0000      -0.339837        -9.2474
  23   1.0000      -0.307502        -8.3676
  24   1.0000      -0.261832        -7.1248
  25   1.0000      -0.249972        -6.8021
  26   0.0000      -0.040781        -1.1097
  27   0.0000      -0.007150        -0.1946
  28   0.0000       0.067864         1.8467
  29   0.0000       0.095097         2.5877
  30   0.0000       0.105011         2.8575

MULLIKEN ATOMIC CHARGES AND SPIN POPULATIONS
--------------------------------------------
   0 O :   -0.275085    0.848675
   1 O :   -0.267622    0.149854
   2 C :    0.028976   -0.010961
   3 C :    0.066650    0.004351
   4 C :    0.021130   -0.013624
   5 C :   -0.131175    0.033714
   6 C :    0.101039    0.000386
   7 H :    0.149221   -0.020088
   8 H :    0.051944    0.004365
   9 H :    0.041396    0.004376
  10 H :    0.038096    0.000843
  11 H :    0.035861   -0.001970
  12 H :    0.067233   -0.000019
  13 H :    0.072335    0.000098
Sum of atomic charges         :    0.0000000

LOEWDIN ATOMIC CHARGES AND SPIN POPULATIONS
-------------------------------------------
   0 O :   -0.186872    0.801923
   1 O :   -0.064177    0.168152
   2 C :    0.057514   -0.004902
   3 C :    0.048262    0.006104
   4 C :   -0.055656   -0.008673
   5 C :   -0.000306    0.025765
   6 C :   -0.046166    0.001246
   7 H :    0.035728    0.005073
   8 H :    0.025003    0.002454
   9 H :    0.024565    0.002512
  10 H :    0.035575    0.000357
  11 H :    0.028264   -0.000152
  12 H :    0.046309    0.000102
  13 H :    0.051956    0.000040

  Mayer bond orders larger than 0.100000
B(  0-O ,  1-O ) :   0.2115 B(  0-O ,  7-H ) :   1.0015 B(  1-O ,  2-C ) :   0.9016
B(  1-O ,  3-C ) :   0.8989 B(  2-C ,  3-C ) :   1.0133 B(  2-C ,  6-C ) :   1.0035
B(  2-C ,  8-H ) :   0.9612 B(  3-C ,  4-C ) :   0.9801 B(  3-C ,  9-H ) :   0.9772
B(  4-C ,  5-C ) :   1.8302 B(  4-C , 10-H ) :   0.9954 B(  5-C ,  6-C ) :   1.0238
B(  5-C , 11-H ) :   0.9670 B(  6-C , 12-H ) :   0.9258 B(  6-C , 13-H ) :   0.9205

Dispersion correction           -0.009871632
FINAL SINGLE POINT ENERGY      -344.360590668054
Dispersion correction            ... done

DIPOLE MOMENT
-------------
                                X             Y             Z
Electronic contribution:     -0.72564       0.14324       1.84000
Nuclear contribution   :      1.44041       0.74239      -2.46672
                        -----------------------------------------
Total Dipole Moment    :      0.71477       0.88564      -0.62672
                        -----------------------------------------
Magnitude (a.u.)       :      1.29924
Magnitude (Debye)      :      3.30240

Rotational constants in cm-1:     0.191690     0.072990     0.062201
Rotational constants in MHz :  5746.715676  2188.180365  1864.738304

                             ****ORCA TERMINATED NORMALLY****
TOTAL RUN TIME: 0 days 0 hours 1 minutes 8 seconds 270 msec
