                         Program Version 5.0.4 -  RELEASE  -
|  1> ! EnGrad PBE0 RIJCOSX D3BJ def2-SVP def2/J
|  2> %output
|  3> xyzfile=True
|  4> end
|  5> %scf
|  6> maxiter 250
|  7> end
|  8> %output
|  9> Print[P_Hirshfeld] = 1
| 10> end
| 11> % maxcore
| 12> 4000
| 13> *xyz 0 2
| 14> O   -2.38302525  -0.37450706   1.72367665
| 15> O   -0.56085874  -0.25904619   0.90893769
| 16> C   -0.73930698   0.23153709  -0.41730171
| 17> C    0.16859341   0.91321938   0.53788098
| 18> C    1.53281145   0.41871928   0.28055949
| 19> C    1.47523779  -0.63909863  -0.62620550
| 20> C    0.07987151  -0.64598027  -1.30692136
| 21> H   -2.18090289   0.49613110   2.11321815
| 22> H   -1.74823979   0.58186302  -0.63884111
| 23> H   -0.10012014   1.81370859   1.09605736
| 24> H    2.43013179   0.68294872   0.83554079
| 25> H    2.16921155  -1.31703910  -0.79008226
| 26> H    0.22790690  -0.25646615  -2.33146625
| 27> H   -0.37114472  -1.64578938  -1.38484352
| 28> *
| 29>
| 30>                          ****END OF INPUT****

CARTESIAN COORDINATES (ANGSTROEM)
---------------------------------
  O     -2.383025   -0.374507    1.723677
  O     -0.560859   -0.259046    0.908938
  C     -0.739307    0.231537   -0.417302
  C      0.168593    0.913219    0.537881
  C      1.532811    0.418719    0.280559
  C      1.475238   -0.639099   -0.626205
  C      0.079872   -0.645980   -1.306921
  H     -2.180903    0.496131    2.113218
  H     -1.748240    0.581863   -0.638841
  H     -0.100120    1.813709    1.096057
  H      2.430132    0.682949    0.835541
  H      2.169212   -1.317039   -0.790082
  H      0.227907   -0.256466   -2.331466
  H     -0.371145   -1.645789   -1.384844

 Total Charge           Charge          ....    0
 Multiplicity           Mult            ....    2
 Number of Electrons    NEL             ....   53
 Basis Dimension        Dim             ....  133

ORBITAL ENERGIES
----------------
                 SPIN UP ORBITALS
  NO   OCC          E(Eh)            E(eV)
   0   1.0000     -19.241529      -523.5886
   1   1.0000     -19.196216      -522.3556
   2   1.0000     -10.302075      -280.3337
   3   1.0000     -10.298117      -280.2260
   4   1.0000     -10.252422      -278.9826
   5   1.0000     -10.250381      -278.9271
   6   1.0000     -10.249681      -278.9080
   7   1.0000      -1.129491       -30.7350
   8   1.0000      -0.954977       -25.9862
   9   1.0000      -0.838007       -22.8033
  10   1.0000      -0.750096       -20.4111
  11   1.0000      -0.692153       -18.8344
  12   1.0000      -0.607214       -16.5231
  13   1.0000      -0.589766       -16.0484
  14   1.0000      -0.565794       -15.3960
  15   1.0000      -0.482777       -13.1370
  16   1.0000      -0.471081       -12.8188
  17   1.0000      -0.446266       -12.1435
  18   1.0000      -0.428316       -11.6551
  19   1.0000      -0.418248       -11.3811
  20   1.0000      -0.409722       -11.1491
  21   1.0000      -0.376909       -10.2562
  22   1.0000      -0.368194       -10.0191
  23   1.0000      -0.327508        -8.9119
  24   1.0000      -0.289038        -7.8651
  25   1.0000      -0.279647        -7.6096
  26   1.0000      -0.243902        -6.6369
  27   0.0000      -0.018966        -0.5161
  28   0.0000       0.064898         1.7660
  29   0.0000       0.094856         2.5812
  30   0.0000       0.101977         2.7749
  31   0.0000       0.111611         3.0371

                 SPIN DOWN ORBITALS
  NO   OCC          E(Eh)            E(eV)
   0   1.0000     -19.235665      -523.4290
   1   1.0000     -19.171293      -521.6774
   2   1.0000     -10.301846      -280.3275
   3   1.0000     -10.298345      -280.2322
   4   1.0000     -10.252419      -278.9825
   5   1.0000     -10.250670      -278.9349
   6   1.0000     -10.248989      -278.8892
   7   1.0000      -1.121992       -30.5310
   8   1.0000      -0.891806       -24.2673
   9   1.0000      -0.834335       -22.7034
  10   1.0000      -0.750001       -20.4086
  11   1.0000      -0.688154       -18.7256
  12   1.0000      -0.606267       -16.4974
  13   1.0000      -0.588668       -16.0185
  14   1.0000      -0.560642       -15.2559
  15   1.0000      -0.474173       -12.9029
  16   1.0000      -0.469280       -12.7698
  17   1.0000      -0.440272       -11.9804
  18   1.0000      -0.423723       -11.5301
  19   1.0000      -0.415755       -11.3133
  20   1.0000      -0.390977       -10.6390
  21   1.0000      -0.374610       -10.1936
  22   1.0000      -0.339199        -9.2301
  23   1.0000      -0.304045        -8.2735
  24   1.0000      -0.260412        -7.0862
  25   1.0000      -0.255195        -6.9442
  26   0.0000      -0.053791        -1.4637
  27   0.0000      -0.013299        -0.3619
  28   0.0000       0.067759         1.8438
  29   0.0000       0.095972         2.6115
  30   0.0000       0.103166         2.8073

MULLIKEN ATOMIC CHARGES AND SPIN POPULATIONS
--------------------------------------------
   0 O :   -0.259893    0.879175
   1 O :   -0.290813    0.119322
   2 C :    0.036347   -0.010870
   3 C :    0.067588    0.009803
   4 C :    0.021142   -0.030751
   5 C :   -0.069999    0.051386
   6 C :    0.070031   -0.001776
   7 H :    0.156600   -0.022188
   8 H :    0.057759    0.002872
   9 H :    0.044417    0.003020
  10 H :    0.037683    0.001639
  11 H :   -0.014268   -0.002291
  12 H :    0.068653    0.000264
  13 H :    0.074752    0.000396
Sum of atomic charges         :    0.0000000

LOEWDIN ATOMIC CHARGES AND SPIN POPULATIONS
-------------------------------------------
   0 O :   -0.171717    0.835867
   1 O :   -0.093874    0.135690
   2 C :    0.066618   -0.005673
   3 C :    0.044630    0.008414
   4 C :   -0.046167   -0.021081
   5 C :    0.023276    0.039126
   6 C :   -0.044150    0.000342
   7 H :    0.041651    0.002377
   8 H :    0.028221    0.001498
   9 H :    0.024926    0.001827
  10 H :    0.031358    0.000347
  11 H :    0.000885    0.000622
  12 H :    0.045228    0.000399
  13 H :    0.049115    0.000245

  Mayer bond orders larger than 0.100000
B(  0-O ,  1-O ) :   0.1842 B(  0-O ,  7-H ) :   0.9965 B(  1-O ,  2-C ) :   0.9052
B(  1-O ,  3-C ) :   0.8949 B(  2-C ,  3-C ) :   1.0159 B(  2-C ,  6-C ) :   1.0083
B(  2-C ,  8-H ) :   0.9606 B(  3-C ,  4-C ) :   0.9875 B(  3-C ,  9-H ) :   0.9723
B(  4-C ,  5-C ) :   1.8126 B(  4-C , 10-H ) :   0.9951 B(  5-C ,  6-C ) :   1.0082
B(  5-C , 11-H ) :   0.9981 B(  6-C , 12-H ) :   0.9300 B(  6-C , 13-H ) :   0.9284

Dispersion correction           -0.009827694
FINAL SINGLE POINT ENERGY      -344.359912240855
Dispersion correction            ... done

DIPOLE MOMENT
-------------
                                X             Y             Z
Electronic contribution:     -0.74656       0.11574       1.87181
Nuclear contribution   :      1.45083       0.75229      -2.49835
                        -----------------------------------------
Total Dipole Moment    :      0.70427       0.86802      -0.62654
                        -----------------------------------------
Magnitude (a.u.)       :      1.28141
Magnitude (Debye)      :      3.25710

Rotational constants in cm-1:     0.190535     0.068631     0.058971
Rotational constants in MHz :  5712.095170  2057.519741  1767.894929

                             ****ORCA TERMINATED NORMALLY****
TOTAL RUN TIME: 0 days 0 hours 1 minutes 15 seconds 365 msec
