                         Program Version 5.0.4 -  RELEASE  -
|  1> ! EnGrad PBE0 RIJCOSX D3BJ def2-SVP def2/J
|  2> %output
|  3> xyzfile=True
|  4> end
|  5> %scf
|  6> maxiter 250
|  7> end
|  8> %output
|  9> Print[P_Hirshfeld] = 1
| 10> end
| 11> % maxcore
| 12> 4000
| 13> *xyz 0 2
| 14> O   -2.38882094  -0.37305181   1.72671419
| 15> O   -0.56211281  -0.25698764   0.90694099
| 16> C   -0.73530964   0.22930408  -0.41196183
| 17> C    0.16910810   0.91075795   0.53709580
| 18> C    1.53705673   0.40563792   0.26881465
| 19> C    1.44371862  -0.60226483  -0.61209794
| 20> C    0.08810870  -0.64754338  -1.30803254
| 21> H   -2.18190059   0.49454305   2.11302891
| 22> H   -1.74848520   0.58208409  -0.63937942
| 23> H   -0.09919024   1.81455360   1.09541186
| 24> H    2.43024110   0.68367297   0.83665714
| 25> H    2.19271716  -1.33779039  -0.79672849
| 26> H    0.22604669  -0.25644260  -2.33137759
| 27> H   -0.37101801  -1.64628385  -1.38486866
| 28> *
| 29>
| 30>                          ****END OF INPUT****

CARTESIAN COORDINATES (ANGSTROEM)
---------------------------------
  O     -2.388821   -0.373052    1.726714
  O     -0.562113   -0.256988    0.906941
  C     -0.735310    0.229304   -0.411962
  C      0.169108    0.910758    0.537096
  C      1.537057    0.405638    0.268815
  C      1.443719   -0.602265   -0.612098
  C      0.088109   -0.647543   -1.308033
  H     -2.181901    0.494543    2.113029
  H     -1.748485    0.582084   -0.639379
  H     -0.099190    1.814554    1.095412
  H      2.430241    0.683673    0.836657
  H      2.192717   -1.337790   -0.796728
  H      0.226047   -0.256443   -2.331378
  H     -0.371018   -1.646284   -1.384869

 Total Charge           Charge          ....    0
 Multiplicity           Mult            ....    2
 Number of Electrons    NEL             ....   53
 Basis Dimension        Dim             ....  133

ORBITAL ENERGIES
----------------
                 SPIN UP ORBITALS
  NO   OCC          E(Eh)            E(eV)
   0   1.0000     -19.240859      -523.5704
   1   1.0000     -19.196759      -522.3704
   2   1.0000     -10.300656      -280.2951
   3   1.0000     -10.296755      -280.1889
   4   1.0000     -10.250886      -278.9408
   5   1.0000     -10.248375      -278.8725
   6   1.0000     -10.244768      -278.7743
   7   1.0000      -1.133110       -30.8335
   8   1.0000      -0.956467       -26.0268
   9   1.0000      -0.846087       -23.0232
  10   1.0000      -0.751303       -20.4440
  11   1.0000      -0.688234       -18.7278
  12   1.0000      -0.607849       -16.5404
  13   1.0000      -0.579072       -15.7573
  14   1.0000      -0.566770       -15.4226
  15   1.0000      -0.484544       -13.1851
  16   1.0000      -0.470109       -12.7923
  17   1.0000      -0.443780       -12.0759
  18   1.0000      -0.425812       -11.5869
  19   1.0000      -0.417444       -11.3592
  20   1.0000      -0.409503       -11.1431
  21   1.0000      -0.380115       -10.3434
  22   1.0000      -0.368306       -10.0221
  23   1.0000      -0.326568        -8.8864
  24   1.0000      -0.291839        -7.9413
  25   1.0000      -0.280400        -7.6301
  26   1.0000      -0.247770        -6.7422
  27   0.0000      -0.009156        -0.2491
  28   0.0000       0.063659         1.7322
  29   0.0000       0.093687         2.5494
  30   0.0000       0.105713         2.8766
  31   0.0000       0.109678         2.9845

                 SPIN DOWN ORBITALS
  NO   OCC          E(Eh)            E(eV)
   0   1.0000     -19.235060      -523.4126
   1   1.0000     -19.171766      -521.6903
   2   1.0000     -10.300448      -280.2895
   3   1.0000     -10.296971      -280.1948
   4   1.0000     -10.250870      -278.9403
   5   1.0000     -10.247850      -278.8582
   6   1.0000     -10.244925      -278.7786
   7   1.0000      -1.125761       -30.6335
   8   1.0000      -0.893210       -24.3055
   9   1.0000      -0.842350       -22.9215
  10   1.0000      -0.751091       -20.4382
  11   1.0000      -0.684277       -18.6201
  12   1.0000      -0.606950       -16.5159
  13   1.0000      -0.577802       -15.7228
  14   1.0000      -0.561817       -15.2878
  15   1.0000      -0.475761       -12.9461
  16   1.0000      -0.468593       -12.7511
  17   1.0000      -0.436968       -11.8905
  18   1.0000      -0.422228       -11.4894
  19   1.0000      -0.412294       -11.2191
  20   1.0000      -0.393650       -10.7118
  21   1.0000      -0.377346       -10.2681
  22   1.0000      -0.339339        -9.2339
  23   1.0000      -0.302328        -8.2268
  24   1.0000      -0.265982        -7.2377
  25   1.0000      -0.256237        -6.9726
  26   0.0000      -0.053713        -1.4616
  27   0.0000      -0.004966        -0.1351
  28   0.0000       0.066264         1.8031
  29   0.0000       0.095017         2.5855
  30   0.0000       0.106654         2.9022

MULLIKEN ATOMIC CHARGES AND SPIN POPULATIONS
--------------------------------------------
   0 O :   -0.256874    0.882836
   1 O :   -0.290044    0.117637
   2 C :    0.027577   -0.010154
   3 C :    0.060425    0.008554
   4 C :    0.029469   -0.017500
   5 C :   -0.121227    0.035685
   6 C :    0.081610   -0.000530
   7 H :    0.156190   -0.022102
   8 H :    0.057518    0.003135
   9 H :    0.043729    0.003036
  10 H :    0.037900    0.001016
  11 H :    0.031433   -0.001788
  12 H :    0.067605   -0.000017
  13 H :    0.074688    0.000191
Sum of atomic charges         :    0.0000000

LOEWDIN ATOMIC CHARGES AND SPIN POPULATIONS
-------------------------------------------
   0 O :   -0.167756    0.839436
   1 O :   -0.091645    0.133883
   2 C :    0.062202   -0.005033
   3 C :    0.045354    0.008139
   4 C :   -0.052194   -0.011233
   5 C :    0.000982    0.027195
   6 C :   -0.045711    0.000709
   7 H :    0.040251    0.002768
   8 H :    0.027789    0.001710
   9 H :    0.024402    0.001836
  10 H :    0.034584    0.000311
  11 H :    0.025676    0.000041
  12 H :    0.045739    0.000144
  13 H :    0.050325    0.000094

  Mayer bond orders larger than 0.100000
B(  0-O ,  1-O ) :   0.1805 B(  0-O ,  7-H ) :   0.9971 B(  1-O ,  2-C ) :   0.9097
B(  1-O ,  3-C ) :   0.8974 B(  2-C ,  3-C ) :   1.0190 B(  2-C ,  6-C ) :   1.0059
B(  2-C ,  8-H ) :   0.9587 B(  3-C ,  4-C ) :   0.9793 B(  3-C ,  9-H ) :   0.9719
B(  4-C ,  5-C ) :   1.8279 B(  4-C , 10-H ) :   0.9951 B(  5-C ,  6-C ) :   1.0154
B(  5-C , 11-H ) :   0.9775 B(  6-C , 12-H ) :   0.9288 B(  6-C , 13-H ) :   0.9266

Dispersion correction           -0.009819186
FINAL SINGLE POINT ENERGY      -344.373440772858
Dispersion correction            ... done

DIPOLE MOMENT
-------------
                                X             Y             Z
Electronic contribution:     -0.78152       0.15050       1.88867
Nuclear contribution   :      1.48864       0.71630      -2.51004
                        -----------------------------------------
Total Dipole Moment    :      0.70711       0.86680      -0.62137
                        -----------------------------------------
Magnitude (a.u.)       :      1.27963
Magnitude (Debye)      :      3.25257

Rotational constants in cm-1:     0.192935     0.068874     0.059149
Rotational constants in MHz :  5784.034421  2064.780071  1773.230368

                             ****ORCA TERMINATED NORMALLY****
TOTAL RUN TIME: 0 days 0 hours 1 minutes 11 seconds 311 msec
