   * xtb version 6.6.1 (8d0f1dd) compiled by 'conda@1efc2f54142f' on 2023-08-01
          program call               : /gpfs/fs1/home/copan/code/autode-practice/.pixi/envs/default/bin/xtb path_opt-1_xtb.xyz --chrg 0 --uhf 0 --opt --input xcontrol_path_opt-1_xtb

   ID    Z sym.   atoms
    1    6 C      1-6
    2    1 H      7-16
constraining bond 3 4 to    1.5259000 Å, actual value:    1.5258969 Å
constraining bond 5 6 to    1.5257000 Å, actual value:    1.5256705 Å

          :  Hamiltonian                  GFN2-xTB          :
 * total energy  :   -17.9298721 Eh     change       -0.1048406E-10 Eh
 * total energy  :   -17.9312546 Eh     change       -0.1382428E-02 Eh
 * total energy  :   -17.9314016 Eh     change       -0.1470841E-03 Eh
 * total energy  :   -17.9314282 Eh     change       -0.2654652E-04 Eh
 * total energy  :   -17.9314371 Eh     change       -0.8945910E-05 Eh
 * total energy  :   -17.9314383 Eh     change       -0.1175828E-05 Eh
   *** GEOMETRY OPTIMIZATION CONVERGED AFTER 6 ITERATIONS ***

 final structure:
================
16
 xtb: 6.6.1 (8d0f1dd)
C            0.24749328274349        1.48577882497465       -0.31523657319996
C           -1.01068805667605        1.15808109353079       -0.07478825481169
C           -1.45462590431000       -0.23488041472015        0.25303996738537
C           -0.27311452644501       -1.11491066417022        0.65066905573384
C            0.86460324172537       -0.93379672933203       -0.34846516007001
C            1.37745150516101        0.50210501069613       -0.29242539503452
H            0.51574728050507        2.51076971922665       -0.53397345828734
H           -1.79080916289539        1.90640387657809       -0.11767567761740
H           -2.19191563468786       -0.20330702718910        1.05980423140559
H           -1.95712591651568       -0.66045270695466       -0.62279827113109
H            0.07508057974236       -0.82697928319771        1.64507877866092
H           -0.58253755683992       -2.16138208200820        0.69151447634694
H            1.67721701266159       -1.63053457002412       -0.13225192061655
H            0.49507454703804       -1.14800502145617       -1.35373921732759
H            1.95894823010990        0.65385830301401        0.62385060050707
H            2.04930107868311        0.69754167103203       -1.13260318194359

          :  Hamiltonian                  GFN2-xTB          :
         :: total energy             -17.931438312248 Eh    ::
         :: gradient norm              0.000373742265 Eh/a0 ::
         :: HOMO-LUMO gap              5.234339532282 eV    ::
         :: SCC energy               -18.224788627285 Eh    ::
         :: -> dispersion             -0.010085111419 Eh    ::
         :: repulsion energy           0.293330135664 Eh    ::

    * Orbital Energies and Occupations

         #    Occupation            Energy/Eh            Energy/eV
      -------------------------------------------------------------
         1        2.0000           -0.6302424             -17.1498
       ...           ...                  ...                  ...
         5        2.0000           -0.5639177             -15.3450
         6        2.0000           -0.5292205             -14.4008
         7        2.0000           -0.5214532             -14.1895
         8        2.0000           -0.4939272             -13.4404
         9        2.0000           -0.4910389             -13.3618
        10        2.0000           -0.4720551             -12.8453
        11        2.0000           -0.4659535             -12.6792
        12        2.0000           -0.4637857             -12.6203
        13        2.0000           -0.4593201             -12.4987
        14        2.0000           -0.4267765             -11.6132
        15        2.0000           -0.4166074             -11.3365
        16        2.0000           -0.4073635             -11.0849
        17        2.0000           -0.3807088             -10.3596 (HOMO)
        18                         -0.1883503              -5.1253 (LUMO)
        19                          0.0981210               2.6700
        20                          0.1028432               2.7985
        21                          0.1096541               2.9838
        22                          0.1232801               3.3546
        23                          0.1259005               3.4259
        24                          0.1467403               3.9930
        25                          0.1567461               4.2653
        26                          0.1926675               5.2427
        27                          0.1968636               5.3569
        28                          0.2366034               6.4383
       ...                                ...                  ...
        34                          0.6419084              17.4672
      -------------------------------------------------------------
                  HL-Gap            0.1923584 Eh            5.2343 eV

     #   Z          covCN         q      C6AA      α(0)
     1   6 C        2.892    -0.041    29.020     8.832
     2   6 C        2.892    -0.041    29.020     8.832
     3   6 C        3.809    -0.053    21.518     6.603
     4   6 C        3.807    -0.054    21.535     6.606
     5   6 C        3.807    -0.054    21.535     6.606
     6   6 C        3.809    -0.053    21.517     6.603
     7   1 H        0.925     0.021     2.723     2.581
     8   1 H        0.925     0.021     2.723     2.581
     9   1 H        0.924     0.033     2.548     2.496
    10   1 H        0.924     0.037     2.490     2.468
    11   1 H        0.924     0.032     2.552     2.498
    12   1 H        0.924     0.025     2.658     2.549
    13   1 H        0.924     0.025     2.658     2.549
    14   1 H        0.924     0.032     2.552     2.498
    15   1 H        0.924     0.037     2.490     2.468
    16   1 H        0.924     0.033     2.548     2.496

Wiberg/Mayer (AO) data.
largest (>0.10) Wiberg bond orders for each atom

     #   Z sym  total        # sym  WBO       # sym  WBO       # sym  WBO
 ---------------------------------------------------------------------------
     1   6 C    3.991 --     2 C    1.929     6 C    1.024     7 H    0.968
     2   6 C    3.991 --     1 C    1.929     3 C    1.024     8 H    0.968
     3   6 C    3.999 --     2 C    1.024     4 C    1.007     9 H    0.968
                            10 H    0.959
     4   6 C    3.999 --     5 C    1.009     3 C    1.007    12 H    0.979
                            11 H    0.979
     5   6 C    3.999 --     4 C    1.009     6 C    1.007    13 H    0.979
                            14 H    0.979
     6   6 C    3.999 --     1 C    1.024     5 C    1.007    16 H    0.968
                            15 H    0.959
     7   1 H    1.000 --     1 C    0.968
     8   1 H    1.000 --     2 C    0.968
     9   1 H    0.999 --     3 C    0.968
    10   1 H    0.999 --     3 C    0.959
    11   1 H    0.999 --     4 C    0.979
    12   1 H    0.999 --     4 C    0.979
    13   1 H    0.999 --     5 C    0.979
    14   1 H    0.999 --     5 C    0.979
    15   1 H    0.999 --     6 C    0.959
    16   1 H    0.999 --     6 C    0.968
 ---------------------------------------------------------------------------

molecular dipole:
                 x           y           z       tot (Debye)
 q only:        0.035      -0.122       0.018
   full:        0.036      -0.124       0.018       0.331

           -------------------------------------------------
          | TOTAL ENERGY              -17.931438312248 Eh   |
          | GRADIENT NORM               0.000373742265 Eh/α |
          | HOMO-LUMO GAP               5.234339532282 eV   |
           -------------------------------------------------

 * finished run on 2025/05/23 at 11:05:30.262
