   * xtb version 6.6.1 (8d0f1dd) compiled by 'conda@1efc2f54142f' on 2023-08-01
          program call               : /gpfs/fs1/home/copan/code/autode-practice/.pixi/envs/default/bin/xtb path_opt5_xtb.xyz --chrg 0 --uhf 0 --opt --input xcontrol_path_opt5_xtb

   ID    Z sym.   atoms
    1    6 C      1-6
    2    1 H      7-16
constraining bond 3 4 to    1.9262000 Å, actual value:    1.8761812 Å
constraining bond 5 6 to    1.9260000 Å, actual value:    1.8760312 Å

          :  Hamiltonian                  GFN2-xTB          :
 * total energy  :   -17.8225243 Eh     change       -0.5318128E-09 Eh
 * total energy  :   -17.8360966 Eh     change       -0.1357233E-01 Eh
 * total energy  :   -17.8440259 Eh     change       -0.7929332E-02 Eh
 * total energy  :   -17.8440485 Eh     change       -0.2258306E-04 Eh
 * total energy  :   -17.8440222 Eh     change        0.2627113E-04 Eh
 * total energy  :   -17.8440402 Eh     change       -0.1796745E-04 Eh
 * total energy  :   -17.8440412 Eh     change       -0.1023730E-05 Eh
 * total energy  :   -17.8440628 Eh     change       -0.2160929E-04 Eh
 * total energy  :   -17.8440643 Eh     change       -0.1500096E-05 Eh
   *** GEOMETRY OPTIMIZATION CONVERGED AFTER 9 ITERATIONS ***

 final structure:
================
16
 xtb: 6.6.1 (8d0f1dd)
C            0.23015436994839        1.55553436873755       -0.31812358477497
C           -1.03259568842641        1.22459819764806       -0.09093670668381
C           -1.58004121142494       -0.11200800083164        0.21574463334535
C           -0.17069216526917       -1.31604653317480        0.69668462341253
C            0.88607143591884       -1.16273321216972       -0.32970504799178
C            1.41677651973542        0.67684181452874       -0.30111850222028
H            0.45877694587249        2.59514513300281       -0.53388384141719
H           -1.78610339129363        2.00520217173795       -0.14084829180138
H           -2.24350511819240       -0.11320082766753        1.07318946652385
H           -2.04725271223395       -0.58619943775805       -0.64161261499206
H            0.12942885176977       -1.00821411106243        1.68994850957156
H           -0.65645329713203       -2.28632490955218        0.70071256390158
H            1.80600748344643       -1.69524165574845       -0.11145752260327
H            0.54734074402676       -1.33683166530650       -1.34286899591003
H            1.99760683647797        0.76663989489367        0.61151973716063
H            2.04459039677646        0.79310877272252       -1.17726442552073

          :  Hamiltonian                  GFN2-xTB          :
         :: total energy             -17.844064327808 Eh    ::
         :: gradient norm              0.000696625340 Eh/a0 ::
         :: HOMO-LUMO gap              4.900292228832 eV    ::
         :: SCC energy               -18.130357764849 Eh    ::
         :: -> dispersion             -0.010008103983 Eh    ::
         :: repulsion energy           0.284478687361 Eh    ::

    * Orbital Energies and Occupations

         #    Occupation            Energy/Eh            Energy/eV
      -------------------------------------------------------------
         1        2.0000           -0.6149043             -16.7324
       ...           ...                  ...                  ...
         5        2.0000           -0.5507839             -14.9876
         6        2.0000           -0.5196861             -14.1414
         7        2.0000           -0.5084430             -13.8354
         8        2.0000           -0.4916036             -13.3772
         9        2.0000           -0.4755825             -12.9413
        10        2.0000           -0.4720509             -12.8452
        11        2.0000           -0.4682064             -12.7405
        12        2.0000           -0.4620261             -12.5724
        13        2.0000           -0.4406593             -11.9909
        14        2.0000           -0.4403634             -11.9829
        15        2.0000           -0.4017245             -10.9315
        16        2.0000           -0.3890492             -10.5866
        17        2.0000           -0.3757314             -10.2242 (HOMO)
        18                         -0.1956489              -5.3239 (LUMO)
        19                         -0.1569717              -4.2714
        20                         -0.1343257              -3.6552
        21                          0.1159535               3.1553
        22                          0.1335731               3.6347
        23                          0.1562979               4.2531
        24                          0.1724054               4.6914
        25                          0.1928859               5.2487
        26                          0.2020055               5.4968
        27                          0.2207529               6.0070
        28                          0.2364798               6.4349
       ...                                ...                  ...
        34                          0.6453043              17.5596
      -------------------------------------------------------------
                  HL-Gap            0.1800824 Eh            4.9003 eV

     #   Z          covCN         q      C6AA      α(0)
     1   6 C        2.887    -0.036    28.901     8.814
     2   6 C        2.887    -0.036    28.901     8.814
     3   6 C        3.492    -0.068    23.645     7.235
     4   6 C        3.489    -0.062    23.574     7.232
     5   6 C        3.490    -0.062    23.568     7.230
     6   6 C        3.493    -0.068    23.639     7.233
     7   1 H        0.925     0.025     2.660     2.550
     8   1 H        0.925     0.025     2.660     2.550
     9   1 H        0.925     0.036     2.506     2.476
    10   1 H        0.925     0.040     2.449     2.447
    11   1 H        0.925     0.036     2.509     2.477
    12   1 H        0.925     0.030     2.583     2.513
    13   1 H        0.925     0.030     2.584     2.514
    14   1 H        0.925     0.036     2.509     2.477
    15   1 H        0.925     0.040     2.449     2.447
    16   1 H        0.925     0.036     2.506     2.475

Wiberg/Mayer (AO) data.
largest (>0.10) Wiberg bond orders for each atom

     #   Z sym  total        # sym  WBO       # sym  WBO       # sym  WBO
 ---------------------------------------------------------------------------
     1   6 C    3.992 --     2 C    1.912     6 C    1.053     7 H    0.956
     2   6 C    3.992 --     1 C    1.912     3 C    1.053     8 H    0.956
     3   6 C    3.992 --     2 C    1.053     9 H    0.973    10 H    0.966
                             4 C    0.933
     4   6 C    3.993 --     5 C    1.064    11 H    0.984    12 H    0.974
                             3 C    0.933
     5   6 C    3.993 --     4 C    1.064    14 H    0.984    13 H    0.974
                             6 C    0.933
     6   6 C    3.992 --     1 C    1.053    16 H    0.973    15 H    0.966
                             5 C    0.933
     7   1 H    0.999 --     1 C    0.956
     8   1 H    0.999 --     2 C    0.956
     9   1 H    0.999 --     3 C    0.973
    10   1 H    0.998 --     3 C    0.966
    11   1 H    0.999 --     4 C    0.984
    12   1 H    0.999 --     4 C    0.974
    13   1 H    0.999 --     5 C    0.974
    14   1 H    0.999 --     5 C    0.984
    15   1 H    0.998 --     6 C    0.966
    16   1 H    0.999 --     6 C    0.973
 ---------------------------------------------------------------------------

molecular dipole:
                 x           y           z       tot (Debye)
 q only:        0.023      -0.081       0.012
   full:        0.025      -0.085       0.012       0.227

           -------------------------------------------------
          | TOTAL ENERGY              -17.844064327808 Eh   |
          | GRADIENT NORM               0.000696625340 Eh/α |
          | HOMO-LUMO GAP               4.900292228832 eV   |
           -------------------------------------------------

 * finished run on 2025/05/23 at 11:05:32.178
