   * xtb version 6.6.1 (8d0f1dd) compiled by 'conda@1efc2f54142f' on 2023-08-01
          program call               : /gpfs/fs1/home/copan/code/autode-practice/.pixi/envs/default/bin/xtb path_opt8_xtb.xyz --chrg 0 --uhf 0 --opt --input xcontrol_path_opt8_xtb

   ID    Z sym.   atoms
    1    6 C      1-6
    2    1 H      7-16
constraining bond 3 4 to    2.0426000 Å, actual value:    1.9926087 Å
constraining bond 5 6 to    2.0424000 Å, actual value:    1.9924022 Å

          :  Hamiltonian                  GFN2-xTB          :
 * total energy  :   -17.7852940 Eh     change       -0.1136033E-08 Eh
 * total energy  :   -17.7989956 Eh     change       -0.1370159E-01 Eh
 * total energy  :   -17.8067315 Eh     change       -0.7735925E-02 Eh
 * total energy  :   -17.8067556 Eh     change       -0.2405874E-04 Eh
 * total energy  :   -17.8067539 Eh     change        0.1738573E-05 Eh
 * total energy  :   -17.8067706 Eh     change       -0.1675298E-04 Eh
 * total energy  :   -17.8067457 Eh     change        0.2492362E-04 Eh
 * total energy  :   -17.8067853 Eh     change       -0.3964420E-04 Eh
 * total energy  :   -17.8067903 Eh     change       -0.4967209E-05 Eh
   *** GEOMETRY OPTIMIZATION CONVERGED AFTER 9 ITERATIONS ***

 final structure:
================
16
 xtb: 6.6.1 (8d0f1dd)
C            0.22288094034920        1.58270826838980       -0.32135110546434
C           -1.04099990594924        1.25134200872983       -0.09506559948142
C           -1.60983682535991       -0.07052096070525        0.20839853853285
C           -0.14233080471223       -1.38390874474268        0.70641716964915
C            0.89877587196834       -1.23556209904061       -0.31887570460578
C            1.41947933368775        0.72776403062201       -0.30769116042320
H            0.44240540485424        2.62554950199667       -0.53676586146706
H           -1.78807760675132        2.03962765606419       -0.14546847687253
H           -2.24924512785595       -0.08451987432440        1.08155330823094
H           -2.06957579950300       -0.55808181711091       -0.64310326288015
H            0.14490138070771       -1.08406508824557        1.70415455427611
H           -0.69156648028921       -2.31788896147596        0.68592337285715
H            1.85150675069907       -1.69877191923058       -0.09065446721034
H            0.57536084194559       -1.41150418443436       -1.33486276302977
H            2.00312594114321        0.80237816785189        0.60221207066394
H            2.03333608506575        0.81574401565593       -1.19484061277555

          :  Hamiltonian                  GFN2-xTB          :
         :: total energy             -17.806790294505 Eh    ::
         :: gradient norm              0.000681318521 Eh/a0 ::
         :: HOMO-LUMO gap              4.174673563883 eV    ::
         :: SCC energy               -18.096274423208 Eh    ::
         :: -> dispersion             -0.010680006123 Eh    ::
         :: repulsion energy           0.287666755582 Eh    ::

    * Orbital Energies and Occupations

         #    Occupation            Energy/Eh            Energy/eV
      -------------------------------------------------------------
         1        2.0000           -0.6138747             -16.7044
       ...           ...                  ...                  ...
         5        2.0000           -0.5480973             -14.9145
         6        2.0000           -0.5185033             -14.1092
         7        2.0000           -0.5062983             -13.7771
         8        2.0000           -0.4912520             -13.3676
         9        2.0000           -0.4745425             -12.9130
        10        2.0000           -0.4733257             -12.8798
        11        2.0000           -0.4677271             -12.7275
        12        2.0000           -0.4605898             -12.5333
        13        2.0000           -0.4423310             -12.0364
        14        2.0000           -0.4383038             -11.9269
        15        2.0000           -0.3951596             -10.7528
        16        2.0000           -0.3851045             -10.4792
        17        2.0000           -0.3665905              -9.9754 (HOMO)
        18                         -0.2131740              -5.8008 (LUMO)
        19                         -0.1803172              -4.9067
        20                         -0.1685109              -4.5854
        21                          0.1152697               3.1366
        22                          0.1332654               3.6263
        23                          0.1551027               4.2206
        24                          0.1792648               4.8780
        25                          0.1982117               5.3936
        26                          0.2108663               5.7380
        27                          0.2188490               5.9552
        28                          0.2433156               6.6210
       ...                                ...                  ...
        34                          0.6479126              17.6306
      -------------------------------------------------------------
                  HL-Gap            0.1534164 Eh            4.1747 eV

     #   Z          covCN         q      C6AA      α(0)
     1   6 C        2.887    -0.035    28.872     8.809
     2   6 C        2.887    -0.035    28.872     8.809
     3   6 C        3.257    -0.072    28.580     8.643
     4   6 C        3.255    -0.064    28.435     8.624
     5   6 C        3.255    -0.064    28.430     8.623
     6   6 C        3.258    -0.072    28.575     8.641
     7   1 H        0.925     0.027     2.631     2.536
     8   1 H        0.925     0.027     2.631     2.537
     9   1 H        0.925     0.036     2.499     2.472
    10   1 H        0.925     0.040     2.447     2.446
    11   1 H        0.926     0.035     2.510     2.477
    12   1 H        0.925     0.032     2.554     2.499
    13   1 H        0.925     0.032     2.553     2.499
    14   1 H        0.926     0.036     2.509     2.477
    15   1 H        0.925     0.040     2.448     2.447
    16   1 H        0.925     0.036     2.498     2.471

Wiberg/Mayer (AO) data.
largest (>0.10) Wiberg bond orders for each atom

     #   Z sym  total        # sym  WBO       # sym  WBO       # sym  WBO
 ---------------------------------------------------------------------------
     1   6 C    3.992 --     2 C    1.905     6 C    1.062     7 H    0.951
     2   6 C    3.992 --     1 C    1.905     3 C    1.062     8 H    0.951
     3   6 C    3.990 --     2 C    1.062     9 H    0.973    10 H    0.967
                             4 C    0.905
     4   6 C    3.992 --     5 C    1.088    11 H    0.983    12 H    0.970
                             3 C    0.905
     5   6 C    3.992 --     4 C    1.088    14 H    0.983    13 H    0.970
                             6 C    0.905
     6   6 C    3.990 --     1 C    1.062    16 H    0.973    15 H    0.967
                             5 C    0.905
     7   1 H    0.999 --     1 C    0.951
     8   1 H    0.999 --     2 C    0.951
     9   1 H    0.999 --     3 C    0.973
    10   1 H    0.998 --     3 C    0.967
    11   1 H    0.999 --     4 C    0.983
    12   1 H    0.999 --     4 C    0.970
    13   1 H    0.999 --     5 C    0.970
    14   1 H    0.999 --     5 C    0.983
    15   1 H    0.998 --     6 C    0.967
    16   1 H    0.999 --     6 C    0.973
 ---------------------------------------------------------------------------

molecular dipole:
                 x           y           z       tot (Debye)
 q only:        0.019      -0.065       0.009
   full:        0.019      -0.063       0.009       0.170

           -------------------------------------------------
          | TOTAL ENERGY              -17.806790294505 Eh   |
          | GRADIENT NORM               0.000681318521 Eh/α |
          | HOMO-LUMO GAP               4.174673563883 eV   |
           -------------------------------------------------

 * finished run on 2025/05/23 at 11:05:32.981
