   * xtb version 6.6.1 (8d0f1dd) compiled by 'conda@1efc2f54142f' on 2023-08-01
          program call               : /gpfs/fs1/home/copan/code/autode-practice/.pixi/envs/default/bin/xtb path_opt7_xtb.xyz --chrg 0 --uhf 0 --opt --input xcontrol_path_opt7_xtb

   ID    Z sym.   atoms
    1    6 C      1-6
    2    1 H      7-16
constraining bond 3 4 to    2.0038000 Å, actual value:    1.9538075 Å
constraining bond 5 6 to    2.0036000 Å, actual value:    1.9536043 Å

          :  Hamiltonian                  GFN2-xTB          :
 * total energy  :   -17.7977183 Eh     change       -0.1989626E-08 Eh
 * total energy  :   -17.8113919 Eh     change       -0.1367361E-01 Eh
 * total energy  :   -17.8191585 Eh     change       -0.7766660E-02 Eh
 * total energy  :   -17.8191809 Eh     change       -0.2239196E-04 Eh
 * total energy  :   -17.8191626 Eh     change        0.1831093E-04 Eh
 * total energy  :   -17.8191774 Eh     change       -0.1483580E-04 Eh
 * total energy  :   -17.8191801 Eh     change       -0.2651313E-05 Eh
 * total energy  :   -17.8192035 Eh     change       -0.2343302E-04 Eh
 * total energy  :   -17.8192068 Eh     change       -0.3251619E-05 Eh
   *** GEOMETRY OPTIMIZATION CONVERGED AFTER 9 ITERATIONS ***

 final structure:
================
16
 xtb: 6.6.1 (8d0f1dd)
C            0.22553628553547        1.57314102080417       -0.32012774372647
C           -1.03799736616455        1.24183456086178       -0.09385577089883
C           -1.60031981626649       -0.08491338021580        0.20998544990304
C           -0.15151021521663       -1.36050936975862        0.70424199096163
C            0.89353548520982       -1.21081895398103       -0.32321382467593
C            1.41938815421859        0.71085071031913       -0.30498522276739
H            0.44785004540720        2.61496577706387       -0.53574444638085
H           -1.78718549509515        2.02765208430511       -0.14400917426183
H           -2.24842678154987       -0.09443042786048        1.07760617532282
H           -2.06204393870822       -0.56810647576665       -0.64365795585197
H            0.14072396712808       -1.05589790060319        1.69958204446720
H           -0.67776776836886       -2.30837376618854        0.69399301690302
H            1.83507934022098       -1.70008262797085       -0.10031003686289
H            0.56342901063851       -1.38423625984238       -1.33811470940036
H            2.00118978478841        0.78986346487223        0.60650206523080
H            2.03865930822273        0.80936154396127       -1.18791185796199

          :  Hamiltonian                  GFN2-xTB          :
         :: total energy             -17.819206782965 Eh    ::
         :: gradient norm              0.000590729099 Eh/a0 ::
         :: HOMO-LUMO gap              4.486630362043 eV    ::
         :: SCC energy               -18.107450579139 Eh    ::
         :: -> dispersion             -0.010495733617 Eh    ::
         :: repulsion energy           0.286424107827 Eh    ::

    * Orbital Energies and Occupations

         #    Occupation            Energy/Eh            Energy/eV
      -------------------------------------------------------------
         1        2.0000           -0.6141096             -16.7108
       ...           ...                  ...                  ...
         5        2.0000           -0.5488949             -14.9362
         6        2.0000           -0.5188555             -14.1188
         7        2.0000           -0.5069267             -13.7942
         8        2.0000           -0.4912899             -13.3687
         9        2.0000           -0.4739735             -12.8975
        10        2.0000           -0.4737162             -12.8905
        11        2.0000           -0.4678988             -12.7322
        12        2.0000           -0.4610814             -12.5467
        13        2.0000           -0.4418183             -12.0225
        14        2.0000           -0.4389469             -11.9444
        15        2.0000           -0.3971917             -10.8081
        16        2.0000           -0.3859983             -10.5035
        17        2.0000           -0.3702915             -10.0761 (HOMO)
        18                         -0.2054108              -5.5895 (LUMO)
        19                         -0.1756319              -4.7792
        20                         -0.1586633              -4.3174
        21                          0.1153943               3.1400
        22                          0.1334356               3.6310
        23                          0.1553625               4.2276
        24                          0.1772688               4.8237
        25                          0.1964412               5.3454
        26                          0.2088968               5.6844
        27                          0.2194331               5.9711
        28                          0.2407042               6.5499
       ...                                ...                  ...
        34                          0.6470270              17.6065
      -------------------------------------------------------------
                  HL-Gap            0.1648806 Eh            4.4866 eV

     #   Z          covCN         q      C6AA      α(0)
     1   6 C        2.887    -0.036    28.882     8.811
     2   6 C        2.887    -0.036    28.882     8.811
     3   6 C        3.337    -0.070    27.093     8.239
     4   6 C        3.335    -0.064    26.993     8.231
     5   6 C        3.335    -0.064    26.984     8.229
     6   6 C        3.338    -0.070    27.084     8.237
     7   1 H        0.925     0.026     2.641     2.541
     8   1 H        0.925     0.026     2.641     2.541
     9   1 H        0.925     0.036     2.502     2.473
    10   1 H        0.925     0.040     2.448     2.447
    11   1 H        0.926     0.036     2.508     2.477
    12   1 H        0.925     0.032     2.565     2.504
    13   1 H        0.925     0.031     2.566     2.505
    14   1 H        0.925     0.036     2.509     2.477
    15   1 H        0.925     0.040     2.448     2.447
    16   1 H        0.925     0.036     2.501     2.473

Wiberg/Mayer (AO) data.
largest (>0.10) Wiberg bond orders for each atom

     #   Z sym  total        # sym  WBO       # sym  WBO       # sym  WBO
 ---------------------------------------------------------------------------
     1   6 C    3.992 --     2 C    1.908     6 C    1.059     7 H    0.952
     2   6 C    3.992 --     1 C    1.908     3 C    1.059     8 H    0.952
     3   6 C    3.991 --     2 C    1.059     9 H    0.973    10 H    0.967
                             4 C    0.915
     4   6 C    3.992 --     5 C    1.079    11 H    0.984    12 H    0.971
                             3 C    0.915
     5   6 C    3.992 --     4 C    1.079    14 H    0.984    13 H    0.971
                             6 C    0.916
     6   6 C    3.991 --     1 C    1.059    16 H    0.973    15 H    0.967
                             5 C    0.916
     7   1 H    0.999 --     1 C    0.952
     8   1 H    0.999 --     2 C    0.952
     9   1 H    0.999 --     3 C    0.973
    10   1 H    0.998 --     3 C    0.967
    11   1 H    0.999 --     4 C    0.984
    12   1 H    0.999 --     4 C    0.971
    13   1 H    0.999 --     5 C    0.971
    14   1 H    0.999 --     5 C    0.984
    15   1 H    0.998 --     6 C    0.967
    16   1 H    0.999 --     6 C    0.973
 ---------------------------------------------------------------------------

molecular dipole:
                 x           y           z       tot (Debye)
 q only:        0.020      -0.070       0.010
   full:        0.021      -0.071       0.010       0.190

           -------------------------------------------------
          | TOTAL ENERGY              -17.819206782965 Eh   |
          | GRADIENT NORM               0.000590729099 Eh/α |
          | HOMO-LUMO GAP               4.486630362043 eV   |
           -------------------------------------------------

 * finished run on 2025/05/23 at 11:05:32.770
