   * xtb version 6.6.1 (8d0f1dd) compiled by 'conda@1efc2f54142f' on 2023-08-01
          program call               : /gpfs/fs1/home/copan/code/autode-practice/.pixi/envs/default/bin/xtb path_opt0_xtb.xyz --chrg 0 --uhf 0 --opt --input xcontrol_path_opt0_xtb

   ID    Z sym.   atoms
    1    6 C      1-6
    2    1 H      7-16
constraining bond 3 4 to    1.7259000 Å, actual value:    1.5259595 Å
constraining bond 5 6 to    1.7257000 Å, actual value:    1.5257764 Å

          :  Hamiltonian                  GFN2-xTB          :
 * total energy  :   -17.3604562 Eh     change       -0.8101608E-10 Eh
 * total energy  :   -17.8437508 Eh     change       -0.4832946E+00 Eh
 * total energy  :   -17.8992355 Eh     change       -0.5548464E-01 Eh
 * total energy  :   -17.9004203 Eh     change       -0.1184882E-02 Eh
 * total energy  :   -17.9012573 Eh     change       -0.8369439E-03 Eh
 * total energy  :   -17.9019535 Eh     change       -0.6961886E-03 Eh
 * total energy  :   -17.8553667 Eh     change        0.4658679E-01 Eh
 * total energy  :   -17.9014702 Eh     change       -0.4610351E-01 Eh
 * total energy  :   -17.9024982 Eh     change       -0.1027955E-02 Eh
 * total energy  :   -17.9027693 Eh     change       -0.2711470E-03 Eh
 * total energy  :   -17.9030839 Eh     change       -0.5323077E-05 Eh
 * total energy  :   -17.9030922 Eh     change       -0.8389048E-05 Eh
 * total energy  :   -17.9030991 Eh     change       -0.6854454E-05 Eh
 * total energy  :   -17.9031115 Eh     change       -0.1237845E-04 Eh
 * total energy  :   -17.9031344 Eh     change       -0.2295144E-04 Eh
 * total energy  :   -17.9031394 Eh     change       -0.4967710E-05 Eh
 * total energy  :   -17.9031452 Eh     change       -0.5846046E-05 Eh
 * total energy  :   -17.9031460 Eh     change       -0.7096905E-06 Eh
 * total energy  :   -17.9031469 Eh     change       -0.9257117E-06 Eh
   *** GEOMETRY OPTIMIZATION CONVERGED AFTER 26 ITERATIONS ***

 final structure:
================
16
 xtb: 6.6.1 (8d0f1dd)
C            0.23992967435025        1.51680052058883       -0.31510391596867
C           -1.02054478033054        1.18732372496219       -0.08255809477412
C           -1.52084605516042       -0.17617085320113        0.23321246260729
C           -0.22205130419414       -1.20984012471213        0.67320375688320
C            0.87281519763081       -1.04378929653195       -0.33987829659318
C            1.40120827566329        0.58936107373184       -0.29575566751332
H            0.48748929388634        2.54946148101190       -0.53189743647375
H           -1.78657492331914        1.95260822698826       -0.12893358982962
H           -2.21822281225749       -0.16068595361777        1.06788093778900
H           -2.00597182065564       -0.62662983772329       -0.63189025272829
H            0.09768698172976       -0.91061730832882        1.66703615774891
H           -0.61789642963263       -2.22231056684740        0.69501081780132
H            1.73956071149451       -1.66252715574528       -0.12012039289764
H            0.52177255701802       -1.23502404725876       -1.34965299158546
H            1.98438136433479        0.70932146934394        0.61648778660824
H            2.04734406944222        0.74300864733954       -1.15706128107394

          :  Hamiltonian                  GFN2-xTB          :
         :: total energy             -17.903146877807 Eh    ::
         :: gradient norm              0.000427110237 Eh/a0 ::
         :: HOMO-LUMO gap              5.183772400553 eV    ::
         :: SCC energy               -18.187430858039 Eh    ::
         :: -> dispersion             -0.009896679994 Eh    ::
         :: repulsion energy           0.283194050875 Eh    ::

    * Orbital Energies and Occupations

         #    Occupation            Energy/Eh            Energy/eV
      -------------------------------------------------------------
         1        2.0000           -0.6199423             -16.8695
       ...           ...                  ...                  ...
         5        2.0000           -0.5571309             -15.1603
         6        2.0000           -0.5232646             -14.2388
         7        2.0000           -0.5140521             -13.9881
         8        2.0000           -0.4929641             -13.4142
         9        2.0000           -0.4820877             -13.1183
        10        2.0000           -0.4689450             -12.7606
        11        2.0000           -0.4676171             -12.7245
        12        2.0000           -0.4646221             -12.6430
        13        2.0000           -0.4485268             -12.2050
        14        2.0000           -0.4348354             -11.8325
        15        2.0000           -0.4124911             -11.2245
        16        2.0000           -0.4012267             -10.9179
        17        2.0000           -0.3799630             -10.3393 (HOMO)
        18                         -0.1894628              -5.1555 (LUMO)
        19                         -0.0590268              -1.6062
        20                         -0.0374244              -1.0184
        21                          0.1181307               3.2145
        22                          0.1289685               3.5094
        23                          0.1531517               4.1675
        24                          0.1559771               4.2444
        25                          0.1702253               4.6321
        26                          0.1880731               5.1177
        27                          0.2240172               6.0958
        28                          0.2273834               6.1874
       ...                                ...                  ...
        34                          0.6419356              17.4680
      -------------------------------------------------------------
                  HL-Gap            0.1905001 Eh            5.1838 eV

     #   Z          covCN         q      C6AA      α(0)
     1   6 C        2.888    -0.038    28.945     8.821
     2   6 C        2.888    -0.038    28.946     8.821
     3   6 C        3.747    -0.062    21.769     6.655
     4   6 C        3.743    -0.059    21.714     6.648
     5   6 C        3.743    -0.059    21.714     6.648
     6   6 C        3.747    -0.062    21.769     6.655
     7   1 H        0.925     0.022     2.700     2.570
     8   1 H        0.925     0.022     2.700     2.570
     9   1 H        0.925     0.035     2.518     2.481
    10   1 H        0.925     0.040     2.455     2.450
    11   1 H        0.925     0.035     2.517     2.481
    12   1 H        0.925     0.028     2.613     2.528
    13   1 H        0.925     0.028     2.613     2.528
    14   1 H        0.925     0.035     2.517     2.481
    15   1 H        0.925     0.039     2.456     2.451
    16   1 H        0.925     0.035     2.517     2.481

Wiberg/Mayer (AO) data.
largest (>0.10) Wiberg bond orders for each atom

     #   Z sym  total        # sym  WBO       # sym  WBO       # sym  WBO
 ---------------------------------------------------------------------------
     1   6 C    3.991 --     2 C    1.922     6 C    1.039     7 H    0.963
     2   6 C    3.991 --     1 C    1.922     3 C    1.039     8 H    0.963
     3   6 C    3.996 --     2 C    1.039     9 H    0.973     4 C    0.970
                            10 H    0.965
     4   6 C    3.996 --     5 C    1.037    11 H    0.983    12 H    0.979
                             3 C    0.970
     5   6 C    3.996 --     4 C    1.037    14 H    0.983    13 H    0.979
                             6 C    0.970
     6   6 C    3.996 --     1 C    1.039    16 H    0.973     5 C    0.970
                            15 H    0.965
     7   1 H    1.000 --     1 C    0.963
     8   1 H    1.000 --     2 C    0.963
     9   1 H    0.999 --     3 C    0.973
    10   1 H    0.998 --     3 C    0.965
    11   1 H    0.999 --     4 C    0.983
    12   1 H    0.999 --     4 C    0.979
    13   1 H    0.999 --     5 C    0.979
    14   1 H    0.999 --     5 C    0.983
    15   1 H    0.998 --     6 C    0.965
    16   1 H    0.999 --     6 C    0.973
 ---------------------------------------------------------------------------

molecular dipole:
                 x           y           z       tot (Debye)
 q only:        0.031      -0.106       0.015
   full:        0.033      -0.112       0.016       0.300

           -------------------------------------------------
          | TOTAL ENERGY              -17.903146877807 Eh   |
          | GRADIENT NORM               0.000427110237 Eh/α |
          | HOMO-LUMO GAP               5.183772400553 eV   |
           -------------------------------------------------

 * finished run on 2025/05/23 at 11:05:30.661
