   * xtb version 6.6.1 (8d0f1dd) compiled by 'conda@1efc2f54142f' on 2023-08-01
          program call               : /gpfs/fs1/home/copan/code/autode-practice/.pixi/envs/default/bin/xtb path_opt6_xtb.xyz --chrg 0 --uhf 0 --opt --input xcontrol_path_opt6_xtb

   ID    Z sym.   atoms
    1    6 C      1-6
    2    1 H      7-16
constraining bond 3 4 to    1.9650000 Å, actual value:    1.9150153 Å
constraining bond 5 6 to    1.9648000 Å, actual value:    1.9148078 Å

          :  Hamiltonian                  GFN2-xTB          :
 * total energy  :   -17.8101583 Eh     change       -0.7114487E-09 Eh
 * total energy  :   -17.8238080 Eh     change       -0.1364971E-01 Eh
 * total energy  :   -17.8315904 Eh     change       -0.7782320E-02 Eh
 * total energy  :   -17.8316109 Eh     change       -0.2050195E-04 Eh
 * total energy  :   -17.8315924 Eh     change        0.1842271E-04 Eh
 * total energy  :   -17.8316050 Eh     change       -0.1251234E-04 Eh
 * total energy  :   -17.8316055 Eh     change       -0.5705799E-06 Eh
 * total energy  :   -17.8316283 Eh     change       -0.2275269E-04 Eh
 * total energy  :   -17.8316306 Eh     change       -0.2294371E-05 Eh
   *** GEOMETRY OPTIMIZATION CONVERGED AFTER 9 ITERATIONS ***

 final structure:
================
16
 xtb: 6.6.1 (8d0f1dd)
C            0.22785350729464        1.56405932561258       -0.31898827518956
C           -1.03530521622046        1.23295950556873       -0.09237396958305
C           -1.59058515737033       -0.09856699666645        0.21309501964402
C           -0.16074431668695       -1.33774639532274        0.70025849911302
C            0.88976631433750       -1.18674398668449       -0.32726946083337
C            1.41825060331967        0.69385568744035       -0.30233891220614
H            0.45336586051438        2.60470706191247       -0.53500193214066
H           -1.78659343024426        2.01619566858045       -0.14271027724573
H           -2.24677309980299       -0.10375491366598        1.07528341650341
H           -2.05447451359882       -0.57751601116217       -0.64262441280253
H            0.13528961397736       -1.03048472470091        1.69433669022521
H           -0.66620415443012       -2.29743233389114        0.69837280572397
H            1.82019749660227       -1.69877974640992       -0.10685798773604
H            0.55465223352401       -1.35982369750397       -1.34109957946141
H            1.99943707489195        0.77809713372162        0.60975502833263
H            2.04198718389213        0.80125442317157       -1.18186665234376

          :  Hamiltonian                  GFN2-xTB          :
         :: total energy             -17.831630569204 Eh    ::
         :: gradient norm              0.000600955977 Eh/a0 ::
         :: HOMO-LUMO gap              4.731685384195 eV    ::
         :: SCC energy               -18.118850799375 Eh    ::
         :: -> dispersion             -0.010229878679 Eh    ::
         :: repulsion energy           0.285401306045 Eh    ::

    * Orbital Energies and Occupations

         #    Occupation            Energy/Eh            Energy/eV
      -------------------------------------------------------------
         1        2.0000           -0.6144480             -16.7200
       ...           ...                  ...                  ...
         5        2.0000           -0.5497887             -14.9605
         6        2.0000           -0.5192446             -14.1294
         7        2.0000           -0.5076383             -13.8135
         8        2.0000           -0.4914167             -13.3721
         9        2.0000           -0.4747211             -12.9178
        10        2.0000           -0.4728840             -12.8678
        11        2.0000           -0.4680576             -12.7365
        12        2.0000           -0.4615576             -12.5596
        13        2.0000           -0.4411547             -12.0044
        14        2.0000           -0.4397215             -11.9654
        15        2.0000           -0.3993977             -10.8682
        16        2.0000           -0.3872697             -10.5381
        17        2.0000           -0.3733711             -10.1599 (HOMO)
        18                         -0.1994849              -5.4283 (LUMO)
        19                         -0.1679828              -4.5710
        20                         -0.1472838              -4.0078
        21                          0.1156405               3.1467
        22                          0.1335761               3.6348
        23                          0.1558028               4.2396
        24                          0.1750262               4.7627
        25                          0.1947164               5.2985
        26                          0.2059579               5.6044
        27                          0.2200991               5.9892
        28                          0.2385065               6.4901
       ...                                ...                  ...
        34                          0.6461968              17.5839
      -------------------------------------------------------------
                  HL-Gap            0.1738862 Eh            4.7317 eV

     #   Z          covCN         q      C6AA      α(0)
     1   6 C        2.887    -0.036    28.892     8.812
     2   6 C        2.887    -0.036    28.892     8.812
     3   6 C        3.417    -0.069    25.195     7.699
     4   6 C        3.414    -0.063    25.122     7.697
     5   6 C        3.414    -0.063    25.113     7.694
     6   6 C        3.417    -0.069    25.186     7.696
     7   1 H        0.925     0.026     2.651     2.546
     8   1 H        0.925     0.026     2.651     2.546
     9   1 H        0.925     0.036     2.504     2.475
    10   1 H        0.925     0.040     2.448     2.447
    11   1 H        0.925     0.036     2.509     2.477
    12   1 H        0.925     0.031     2.575     2.510
    13   1 H        0.925     0.031     2.575     2.509
    14   1 H        0.925     0.036     2.508     2.477
    15   1 H        0.925     0.040     2.449     2.447
    16   1 H        0.925     0.036     2.504     2.474

Wiberg/Mayer (AO) data.
largest (>0.10) Wiberg bond orders for each atom

     #   Z sym  total        # sym  WBO       # sym  WBO       # sym  WBO
 ---------------------------------------------------------------------------
     1   6 C    3.992 --     2 C    1.910     6 C    1.056     7 H    0.954
     2   6 C    3.992 --     1 C    1.910     3 C    1.056     8 H    0.954
     3   6 C    3.991 --     2 C    1.056     9 H    0.973    10 H    0.966
                             4 C    0.925
     4   6 C    3.993 --     5 C    1.071    11 H    0.984    12 H    0.973
                             3 C    0.925
     5   6 C    3.993 --     4 C    1.071    14 H    0.984    13 H    0.973
                             6 C    0.925
     6   6 C    3.991 --     1 C    1.056    16 H    0.973    15 H    0.966
                             5 C    0.925
     7   1 H    0.999 --     1 C    0.954
     8   1 H    0.999 --     2 C    0.954
     9   1 H    0.999 --     3 C    0.973
    10   1 H    0.998 --     3 C    0.966
    11   1 H    0.999 --     4 C    0.984
    12   1 H    0.999 --     4 C    0.973
    13   1 H    0.999 --     5 C    0.973
    14   1 H    0.999 --     5 C    0.984
    15   1 H    0.998 --     6 C    0.966
    16   1 H    0.999 --     6 C    0.973
 ---------------------------------------------------------------------------

molecular dipole:
                 x           y           z       tot (Debye)
 q only:        0.022      -0.076       0.011
   full:        0.023      -0.078       0.011       0.209

           -------------------------------------------------
          | TOTAL ENERGY              -17.831630569204 Eh   |
          | GRADIENT NORM               0.000600955977 Eh/α |
          | HOMO-LUMO GAP               4.731685384195 eV   |
           -------------------------------------------------

 * finished run on 2025/05/23 at 11:05:32.472
