   * xtb version 6.6.1 (8d0f1dd) compiled by 'conda@1efc2f54142f' on 2023-08-01
          program call               : /gpfs/fs1/home/copan/code/autode-practice/.pixi/envs/default/bin/xtb path_opt2_xtb.xyz --chrg 0 --uhf 0 --opt --input xcontrol_path_opt2_xtb

   ID    Z sym.   atoms
    1    6 C      1-6
    2    1 H      7-16
constraining bond 3 4 to    1.8083000 Å, actual value:    1.7582005 Å
constraining bond 5 6 to    1.8081000 Å, actual value:    1.7580053 Å

          :  Hamiltonian                  GFN2-xTB          :
 * total energy  :   -17.8576901 Eh     change       -0.1144222E-09 Eh
 * total energy  :   -17.8715875 Eh     change       -0.1389742E-01 Eh
 * total energy  :   -17.8806771 Eh     change       -0.9089516E-02 Eh
 * total energy  :   -17.8806999 Eh     change       -0.2280366E-04 Eh
 * total energy  :   -17.8805650 Eh     change        0.1348535E-03 Eh
 * total energy  :   -17.8806926 Eh     change       -0.1276113E-03 Eh
 * total energy  :   -17.8806918 Eh     change        0.8713765E-06 Eh
 * total energy  :   -17.8807093 Eh     change       -0.1750213E-04 Eh
 * total energy  :   -17.8807103 Eh     change       -0.1025871E-05 Eh
 * total energy  :   -17.8807131 Eh     change       -0.2831356E-05 Eh
   *** GEOMETRY OPTIMIZATION CONVERGED AFTER 10 ITERATIONS ***

 final structure:
================
16
 xtb: 6.6.1 (8d0f1dd)
C            0.23637809952533        1.53128330471501       -0.31571991912373
C           -1.02510248137286        1.20106237920997       -0.08626137609110
C           -1.54621943989791       -0.15104779721223        0.22531037359713
C           -0.20005550993230       -1.25122888234555        0.68387568497402
C            0.87646500170977       -1.09161457385713       -0.33742553848392
C            1.40904947057752        0.62501954090508       -0.29675814481259
H            0.47612967241354        2.56689094081001       -0.53151029871569
H           -1.78595713555626        1.97259132968242       -0.13480987282001
H           -2.23043828830875       -0.14247602577884        1.06858160493875
H           -2.02207097947794       -0.61242947061451       -0.63675460419075
H            0.11140021762355       -0.94406392604087        1.67590198342213
H           -0.63077637617557       -2.24813671560264        0.70228851675220
H            1.76453734889583       -1.67839120834352       -0.12135687552841
H            0.52816197771301       -1.27182256817017       -1.34823870749434
H            1.99010179906702        0.73082433812127        0.61632075759596
H            2.04849662319601        0.76381933452169       -1.16347358401966

          :  Hamiltonian                  GFN2-xTB          :
         :: total energy             -17.880713112590 Eh    ::
         :: gradient norm              0.000174473912 Eh/a0 ::
         :: HOMO-LUMO gap              5.124913958269 eV    ::
         :: SCC energy               -18.165407237783 Eh    ::
         :: -> dispersion             -0.009847552976 Eh    ::
         :: repulsion energy           0.283157770130 Eh    ::

    * Orbital Energies and Occupations

         #    Occupation            Energy/Eh            Energy/eV
      -------------------------------------------------------------
         1        2.0000           -0.6172952             -16.7975
       ...           ...                  ...                  ...
         5        2.0000           -0.5543562             -15.0848
         6        2.0000           -0.5215978             -14.1934
         7        2.0000           -0.5115022             -13.9187
         8        2.0000           -0.4923715             -13.3981
         9        2.0000           -0.4790516             -13.0357
        10        2.0000           -0.4694659             -12.7748
        11        2.0000           -0.4685770             -12.7506
        12        2.0000           -0.4635912             -12.6150
        13        2.0000           -0.4446774             -12.1003
        14        2.0000           -0.4375330             -11.9059
        15        2.0000           -0.4084516             -11.1145
        16        2.0000           -0.3964254             -10.7873
        17        2.0000           -0.3791373             -10.3168 (HOMO)
        18                         -0.1908001              -5.1919 (LUMO)
        19                         -0.1068807              -2.9084
        20                         -0.0841933              -2.2910
        21                          0.1171517               3.1879
        22                          0.1323475               3.6014
        23                          0.1567926               4.2665
        24                          0.1625830               4.4241
        25                          0.1839762               5.0062
        26                          0.1909060               5.1948
        27                          0.2229954               6.0680
        28                          0.2321198               6.3163
       ...                                ...                  ...
        34                          0.6431958              17.5022
      -------------------------------------------------------------
                  HL-Gap            0.1883371 Eh            5.1249 eV

     #   Z          covCN         q      C6AA      α(0)
     1   6 C        2.887    -0.037    28.926     8.818
     2   6 C        2.887    -0.037    28.926     8.818
     3   6 C        3.673    -0.065    21.997     6.722
     4   6 C        3.669    -0.060    21.924     6.713
     5   6 C        3.670    -0.060    21.923     6.712
     6   6 C        3.673    -0.065    21.996     6.721
     7   1 H        0.925     0.023     2.685     2.562
     8   1 H        0.925     0.023     2.685     2.562
     9   1 H        0.925     0.035     2.512     2.479
    10   1 H        0.925     0.040     2.450     2.448
    11   1 H        0.925     0.035     2.511     2.478
    12   1 H        0.925     0.029     2.602     2.522
    13   1 H        0.925     0.029     2.602     2.522
    14   1 H        0.925     0.035     2.511     2.478
    15   1 H        0.925     0.040     2.451     2.448
    16   1 H        0.925     0.035     2.511     2.478

Wiberg/Mayer (AO) data.
largest (>0.10) Wiberg bond orders for each atom

     #   Z sym  total        # sym  WBO       # sym  WBO       # sym  WBO
 ---------------------------------------------------------------------------
     1   6 C    3.992 --     2 C    1.918     6 C    1.045     7 H    0.960
     2   6 C    3.992 --     1 C    1.918     3 C    1.045     8 H    0.960
     3   6 C    3.994 --     2 C    1.045     9 H    0.973    10 H    0.966
                             4 C    0.955
     4   6 C    3.995 --     5 C    1.047    11 H    0.984    12 H    0.977
                             3 C    0.955
     5   6 C    3.995 --     4 C    1.047    14 H    0.984    13 H    0.977
                             6 C    0.956
     6   6 C    3.994 --     1 C    1.045    16 H    0.973    15 H    0.966
                             5 C    0.956
     7   1 H    0.999 --     1 C    0.960
     8   1 H    0.999 --     2 C    0.960
     9   1 H    0.999 --     3 C    0.973
    10   1 H    0.998 --     3 C    0.966
    11   1 H    0.999 --     4 C    0.984
    12   1 H    0.999 --     4 C    0.977
    13   1 H    0.999 --     5 C    0.977
    14   1 H    0.999 --     5 C    0.984
    15   1 H    0.998 --     6 C    0.966
    16   1 H    0.999 --     6 C    0.973
 ---------------------------------------------------------------------------

molecular dipole:
                 x           y           z       tot (Debye)
 q only:        0.028      -0.097       0.014
   full:        0.030      -0.103       0.015       0.274

           -------------------------------------------------
          | TOTAL ENERGY              -17.880713112590 Eh   |
          | GRADIENT NORM               0.000174473912 Eh/α |
          | HOMO-LUMO GAP               5.124913958269 eV   |
           -------------------------------------------------

 * finished run on 2025/05/23 at 11:05:31.282
