   * xtb version 6.6.1 (8d0f1dd) compiled by 'conda@1efc2f54142f' on 2023-08-01
          program call               : /gpfs/fs1/home/copan/code/autode-practice/.pixi/envs/default/bin/xtb path_opt1_xtb.xyz --chrg 0 --uhf 0 --opt --input xcontrol_path_opt1_xtb

   ID    Z sym.   atoms
    1    6 C      1-6
    2    1 H      7-16
constraining bond 3 4 to    1.7678000 Å, actual value:    1.7172498 Å
constraining bond 5 6 to    1.7676000 Å, actual value:    1.7170679 Å

          :  Hamiltonian                  GFN2-xTB          :
 * total energy  :   -17.8677256 Eh     change       -0.5197620E-11 Eh
 * total energy  :   -17.8822905 Eh     change       -0.1456492E-01 Eh
 * total energy  :   -17.8921922 Eh     change       -0.9901653E-02 Eh
 * total energy  :   -17.8922140 Eh     change       -0.2180275E-04 Eh
 * total energy  :   -17.8922021 Eh     change        0.1188844E-04 Eh
 * total energy  :   -17.8922191 Eh     change       -0.1700969E-04 Eh
 * total energy  :   -17.8921585 Eh     change        0.6060351E-04 Eh
 * total energy  :   -17.8922148 Eh     change       -0.5629015E-04 Eh
 * total energy  :   -17.8922104 Eh     change        0.4444040E-05 Eh
 * total energy  :   -17.8922226 Eh     change       -0.1220306E-04 Eh
 * total energy  :   -17.8922240 Eh     change       -0.1416659E-05 Eh
   *** GEOMETRY OPTIMIZATION CONVERGED AFTER 11 ITERATIONS ***

 final structure:
================
16
 xtb: 6.6.1 (8d0f1dd)
C            0.23821984380570        1.52391925782360       -0.31542661513048
C           -1.02271246977323        1.19406407999462       -0.08446656956161
C           -1.53377148239873       -0.16346651202429        0.22897734418771
C           -0.21087877306465       -1.23060386179815        0.67894394374283
C            0.87417221486239       -1.06778417638445       -0.33860874551809
C            1.40540116106396        0.60750766145261       -0.29642412609068
H            0.48196552248072        2.55802167685445       -0.53133689651773
H           -1.78624288814198        1.96228529113216       -0.13196891278456
H           -2.22429794395447       -0.15193008224771        1.06802370276015
H           -2.01378924361429       -0.62006640600300       -0.63429964033581
H            0.10420608912956       -0.92633983902006        1.67153565721623
H           -0.62387745605894       -2.23534830463597        0.69913864488088
H            1.75159201540384       -1.67061756224321       -0.12121101052136
H            0.52450611265412       -1.25226780398007       -1.34904573387451
H            1.98723587411004        0.71953677893021        0.61638218424304
H            2.04836142349604        0.75336980214925       -1.16023322669604

          :  Hamiltonian                  GFN2-xTB          :
         :: total energy             -17.892223987106 Eh    ::
         :: gradient norm              0.000381342507 Eh/a0 ::
         :: HOMO-LUMO gap              5.158783258184 eV    ::
         :: SCC energy               -18.176769428647 Eh    ::
         :: -> dispersion             -0.009867173726 Eh    ::
         :: repulsion energy           0.283207454238 Eh    ::

    * Orbital Energies and Occupations

         #    Occupation            Energy/Eh            Energy/eV
      -------------------------------------------------------------
         1        2.0000           -0.6185052             -16.8304
       ...           ...                  ...                  ...
         5        2.0000           -0.5557161             -15.1218
         6        2.0000           -0.5223949             -14.2151
         7        2.0000           -0.5127285             -13.9521
         8        2.0000           -0.4926826             -13.4066
         9        2.0000           -0.4805020             -13.0751
        10        2.0000           -0.4687318             -12.7548
        11        2.0000           -0.4685548             -12.7500
        12        2.0000           -0.4641389             -12.6299
        13        2.0000           -0.4464710             -12.1491
        14        2.0000           -0.4362934             -11.8721
        15        2.0000           -0.4105144             -11.1707
        16        2.0000           -0.3989120             -10.8549
        17        2.0000           -0.3796213             -10.3300 (HOMO)
        18                         -0.1900395              -5.1712 (LUMO)
        19                         -0.0847117              -2.3051
        20                         -0.0625513              -1.7021
        21                          0.1176688               3.2019
        22                          0.1311996               3.5701
        23                          0.1566127               4.2616
        24                          0.1583897               4.3100
        25                          0.1777978               4.8381
        26                          0.1893949               5.1537
        27                          0.2238622               6.0916
        28                          0.2303083               6.2670
       ...                                ...                  ...
        34                          0.6427429              17.4899
      -------------------------------------------------------------
                  HL-Gap            0.1895818 Eh            5.1588 eV

     #   Z          covCN         q      C6AA      α(0)
     1   6 C        2.887    -0.038    28.935     8.819
     2   6 C        2.887    -0.038    28.935     8.819
     3   6 C        3.714    -0.064    21.858     6.680
     4   6 C        3.711    -0.060    21.793     6.671
     5   6 C        3.711    -0.060    21.792     6.671
     6   6 C        3.714    -0.064    21.858     6.680
     7   1 H        0.925     0.023     2.692     2.566
     8   1 H        0.925     0.023     2.692     2.566
     9   1 H        0.925     0.035     2.515     2.480
    10   1 H        0.925     0.040     2.452     2.449
    11   1 H        0.925     0.035     2.513     2.479
    12   1 H        0.925     0.029     2.607     2.525
    13   1 H        0.925     0.029     2.607     2.525
    14   1 H        0.925     0.035     2.513     2.479
    15   1 H        0.925     0.040     2.453     2.449
    16   1 H        0.925     0.035     2.514     2.479

Wiberg/Mayer (AO) data.
largest (>0.10) Wiberg bond orders for each atom

     #   Z sym  total        # sym  WBO       # sym  WBO       # sym  WBO
 ---------------------------------------------------------------------------
     1   6 C    3.992 --     2 C    1.920     6 C    1.042     7 H    0.962
     2   6 C    3.992 --     1 C    1.920     3 C    1.042     8 H    0.962
     3   6 C    3.995 --     2 C    1.042     9 H    0.973    10 H    0.965
                             4 C    0.963
     4   6 C    3.995 --     5 C    1.042    11 H    0.983    12 H    0.978
                             3 C    0.963
     5   6 C    3.995 --     4 C    1.042    14 H    0.983    13 H    0.978
                             6 C    0.963
     6   6 C    3.995 --     1 C    1.042    16 H    0.973    15 H    0.965
                             5 C    0.963
     7   1 H    0.999 --     1 C    0.962
     8   1 H    0.999 --     2 C    0.962
     9   1 H    0.999 --     3 C    0.973
    10   1 H    0.998 --     3 C    0.965
    11   1 H    0.999 --     4 C    0.983
    12   1 H    0.999 --     4 C    0.978
    13   1 H    0.999 --     5 C    0.978
    14   1 H    0.999 --     5 C    0.983
    15   1 H    0.998 --     6 C    0.965
    16   1 H    0.999 --     6 C    0.973
 ---------------------------------------------------------------------------

molecular dipole:
                 x           y           z       tot (Debye)
 q only:        0.029      -0.101       0.015
   full:        0.031      -0.108       0.016       0.288

           -------------------------------------------------
          | TOTAL ENERGY              -17.892223987106 Eh   |
          | GRADIENT NORM               0.000381342507 Eh/α |
          | HOMO-LUMO GAP               5.158783258184 eV   |
           -------------------------------------------------

 * finished run on 2025/05/23 at 11:05:30.971
