   * xtb version 6.6.1 (8d0f1dd) compiled by 'conda@1efc2f54142f' on 2023-08-01
          program call               : /gpfs/fs1/home/copan/code/autode-practice/.pixi/envs/default/bin/xtb path_opt11_xtb.xyz --chrg 0 --uhf 0 --opt --input xcontrol_path_opt11_xtb

   ID    Z sym.   atoms
    1    6 C      1-6
    2    1 H      7-16
constraining bond 3 4 to    2.1597000 Å, actual value:    2.1096847 Å
constraining bond 5 6 to    2.1595000 Å, actual value:    2.1094555 Å

          :  Hamiltonian                  GFN2-xTB          :
 * total energy  :   -17.7482531 Eh     change       -0.1342215E-10 Eh
 * total energy  :   -17.7628610 Eh     change       -0.1460792E-01 Eh
 * total energy  :   -17.7704629 Eh     change       -0.7601870E-02 Eh
 * total energy  :   -17.7704964 Eh     change       -0.3347542E-04 Eh
 * total energy  :   -17.7705105 Eh     change       -0.1414199E-04 Eh
 * total energy  :   -17.7705303 Eh     change       -0.1977135E-04 Eh
 * total energy  :   -17.7705366 Eh     change       -0.6317682E-05 Eh
 * total energy  :   -17.7705602 Eh     change       -0.2360325E-04 Eh
 * total energy  :   -17.7705781 Eh     change       -0.1788743E-04 Eh
 * total energy  :   -17.7706340 Eh     change       -0.5592716E-04 Eh
 * total energy  :   -17.8170683 Eh     change       -0.2179144E-03 Eh
 * total energy  :   -17.8172351 Eh     change       -0.1668193E-03 Eh
 * total energy  :   -17.8173057 Eh     change       -0.7057746E-04 Eh
 * total energy  :   -17.8172918 Eh     change        0.1386256E-04 Eh
 * total energy  :   -17.8173457 Eh     change       -0.5386795E-04 Eh
 * total energy  :   -17.8173465 Eh     change       -0.8465530E-06 Eh
 * total energy  :   -17.8173561 Eh     change       -0.9588350E-05 Eh
 * total energy  :   -17.8173566 Eh     change       -0.4808926E-06 Eh
 * total energy  :   -17.8173587 Eh     change       -0.2150144E-05 Eh
   *** GEOMETRY OPTIMIZATION CONVERGED AFTER 38 ITERATIONS ***

 final structure:
================
16
 xtb: 6.6.1 (8d0f1dd)
C            0.35626566398540        1.54410340948324       -0.13064037099680
C           -0.93793821272016        1.25432461745124        0.27178877204024
C           -1.56965632283391        0.09056807728700       -0.12934136647959
C           -0.22558181912823       -1.40301504439655        0.65509413617836
C            1.07116695499168       -1.11248627978970        0.25300965429945
C            1.06287244118401        0.67945305873205       -0.94711840525229
H            0.88594736872576        2.34217251639339        0.37175844084453
H           -1.37099917790728        1.83639788069286        1.07437338822401
H           -2.52099941615817       -0.16929174797234        0.30799905809492
H           -1.41140434852708       -0.29205668658590       -1.12265829608792
H           -0.51433469252015       -1.20834938701667        1.67394386043700
H           -0.76576491464217       -2.19356481569801        0.16174142830695
H            1.76096421442341       -0.69775592704823        0.96871794805366
H            1.51667878038413       -1.68329383582228       -0.54476982971421
H            2.10892184171651        0.86612526374606       -1.13230927238707
H            0.55399163902591        0.14696890054383       -1.73161914556095

          :  Hamiltonian                  GFN2-xTB          :
         :: total energy             -17.817358731976 Eh    ::
         :: gradient norm              0.000823616133 Eh/a0 ::
         :: HOMO-LUMO gap              4.068169256407 eV    ::
         :: SCC energy               -18.140176636284 Eh    ::
         :: -> dispersion             -0.011216300770 Eh    ::
         :: repulsion energy           0.322683609768 Eh    ::

    * Orbital Energies and Occupations

         #    Occupation            Energy/Eh            Energy/eV
      -------------------------------------------------------------
         1        2.0000           -0.6191926             -16.8491
       ...           ...                  ...                  ...
         5        2.0000           -0.5489451             -14.9376
         6        2.0000           -0.5210631             -14.1788
         7        2.0000           -0.5152545             -14.0208
         8        2.0000           -0.5039470             -13.7131
         9        2.0000           -0.4764175             -12.9640
        10        2.0000           -0.4674984             -12.7213
        11        2.0000           -0.4638490             -12.6220
        12        2.0000           -0.4576849             -12.4542
        13        2.0000           -0.4398053             -11.9677
        14        2.0000           -0.4286384             -11.6638
        15        2.0000           -0.4209628             -11.4550
        16        2.0000           -0.3786025             -10.3023
        17        2.0000           -0.3753629             -10.2141 (HOMO)
        18                         -0.2258605              -6.1460 (LUMO)
        19                         -0.2089157              -5.6849
        20                         -0.1166096              -3.1731
        21                          0.1318366               3.5875
        22                          0.1390089               3.7826
        23                          0.1517277               4.1287
        24                          0.1729164               4.7053
        25                          0.1729741               4.7069
        26                          0.2018775               5.4934
        27                          0.2069778               5.6322
        28                          0.2985494               8.1239
       ...                                ...                  ...
        34                          0.5622483              15.2996
      -------------------------------------------------------------
                  HL-Gap            0.1495025 Eh            4.0682 eV

     #   Z          covCN         q      C6AA      α(0)
     1   6 C        2.900    -0.037    28.922     8.818
     2   6 C        2.900    -0.037    28.921     8.818
     3   6 C        3.045    -0.070    29.698     8.938
     4   6 C        3.031    -0.073    29.788     8.952
     5   6 C        3.031    -0.073    29.786     8.952
     6   6 C        3.045    -0.070    29.698     8.938
     7   1 H        0.925     0.025     2.658     2.550
     8   1 H        0.925     0.025     2.658     2.550
     9   1 H        0.926     0.033     2.548     2.496
    10   1 H        0.926     0.047     2.353     2.399
    11   1 H        0.926     0.036     2.509     2.477
    12   1 H        0.926     0.039     2.456     2.451
    13   1 H        0.926     0.035     2.511     2.478
    14   1 H        0.926     0.039     2.457     2.451
    15   1 H        0.926     0.033     2.547     2.495
    16   1 H        0.926     0.047     2.352     2.398

Wiberg/Mayer (AO) data.
largest (>0.10) Wiberg bond orders for each atom

     #   Z sym  total        # sym  WBO       # sym  WBO       # sym  WBO
 ---------------------------------------------------------------------------
     1   6 C    3.990 --     6 C    1.464     2 C    1.427     7 H    0.968
     2   6 C    3.990 --     3 C    1.464     1 C    1.427     8 H    0.968
     3   6 C    3.992 --     2 C    1.464     9 H    0.983    10 H    0.967
                             4 C    0.429     6 C    0.119
     4   6 C    3.993 --     5 C    1.493    11 H    0.979    12 H    0.976
                             3 C    0.429
     5   6 C    3.993 --     4 C    1.493    13 H    0.979    14 H    0.976
                             6 C    0.429
     6   6 C    3.992 --     1 C    1.464    15 H    0.983    16 H    0.967
                             5 C    0.429     3 C    0.119
     7   1 H    0.999 --     1 C    0.968
     8   1 H    0.999 --     2 C    0.968
     9   1 H    0.999 --     3 C    0.983
    10   1 H    0.998 --     3 C    0.967
    11   1 H    0.999 --     4 C    0.979
    12   1 H    0.998 --     4 C    0.976
    13   1 H    0.999 --     5 C    0.979
    14   1 H    0.998 --     5 C    0.976
    15   1 H    0.999 --     6 C    0.983
    16   1 H    0.998 --     6 C    0.967
 ---------------------------------------------------------------------------

molecular dipole:
                 x           y           z       tot (Debye)
 q only:        0.006      -0.140      -0.082
   full:        0.023      -0.178      -0.053       0.476

           -------------------------------------------------
          | TOTAL ENERGY              -17.817358731976 Eh   |
          | GRADIENT NORM               0.000823616133 Eh/α |
          | HOMO-LUMO GAP               4.068169256407 eV   |
           -------------------------------------------------

 * finished run on 2025/05/23 at 11:05:33.800
