   * xtb version 6.6.1 (8d0f1dd) compiled by 'conda@1efc2f54142f' on 2023-08-01
          program call               : /gpfs/fs1/home/copan/code/autode-practice/.pixi/envs/default/bin/xtb path_opt4_xtb.xyz --chrg 0 --uhf 0 --opt --input xcontrol_path_opt4_xtb

   ID    Z sym.   atoms
    1    6 C      1-6
    2    1 H      7-16
constraining bond 3 4 to    1.8873000 Å, actual value:    1.8373274 Å
constraining bond 5 6 to    1.8871000 Å, actual value:    1.8371274 Å

          :  Hamiltonian                  GFN2-xTB          :
 * total energy  :   -17.8347099 Eh     change       -0.4490168E-09 Eh
 * total energy  :   -17.8482325 Eh     change       -0.1352260E-01 Eh
 * total energy  :   -17.8564284 Eh     change       -0.8195872E-02 Eh
 * total energy  :   -17.8564508 Eh     change       -0.2242694E-04 Eh
 * total energy  :   -17.8564565 Eh     change       -0.5732892E-05 Eh
 * total energy  :   -17.8564546 Eh     change        0.1975154E-05 Eh
 * total energy  :   -17.8564616 Eh     change       -0.7050284E-05 Eh
 * total energy  :   -17.8563822 Eh     change        0.7944316E-04 Eh
 * total energy  :   -17.8564566 Eh     change       -0.7443792E-04 Eh
 * total energy  :   -17.8564670 Eh     change       -0.1044486E-04 Eh
 * total energy  :   -17.8564680 Eh     change       -0.9975278E-06 Eh
   *** GEOMETRY OPTIMIZATION CONVERGED AFTER 11 ITERATIONS ***

 final structure:
================
16
 xtb: 6.6.1 (8d0f1dd)
C            0.23221949621167        1.54712598290324       -0.31743261689450
C           -1.03000875840862        1.21653757384472       -0.08917069944335
C           -1.56934746641492       -0.12475864842624        0.21929147254400
C           -0.18047290469598       -1.29423000386804        0.69195136581501
C            0.88294667240007       -1.13887315786922       -0.33246573914130
C            1.41449729319552        0.65998163886217       -0.29951858542228
H            0.46468565321589        2.58523681472718       -0.53359805854083
H           -1.78599505233159        1.99400632884029       -0.13860397875516
H           -2.23899263588771       -0.12293768848026        1.07246254997953
H           -2.03936950934926       -0.59504506839700       -0.63930309904777
H            0.12218501210580       -0.98664053645459        1.68505643650297
H           -0.64772297669916       -2.27369168108373        0.69986898975063
H            1.79211369811510       -1.68950845222631       -0.11347376590998
H            0.54201893876681       -1.31463321416912       -1.34501460858700
H            1.99564381625820        0.75486602409868        0.61289390457740
H            2.04569872351818        0.78282408769823       -1.17297356742737

          :  Hamiltonian                  GFN2-xTB          :
         :: total energy             -17.856468040103 Eh    ::
         :: gradient norm              0.000535234041 Eh/a0 ::
         :: HOMO-LUMO gap              5.008077323481 eV    ::
         :: SCC energy               -18.142375273406 Eh    ::
         :: -> dispersion             -0.009889515260 Eh    ::
         :: repulsion energy           0.284123550627 Eh    ::

    * Orbital Energies and Occupations

         #    Occupation            Energy/Eh            Energy/eV
      -------------------------------------------------------------
         1        2.0000           -0.6155424             -16.7498
       ...           ...                  ...                  ...
         5        2.0000           -0.5519021             -15.0180
         6        2.0000           -0.5202373             -14.1564
         7        2.0000           -0.5093572             -13.8603
         8        2.0000           -0.4918803             -13.3847
         9        2.0000           -0.4766373             -12.9700
        10        2.0000           -0.4712410             -12.8231
        11        2.0000           -0.4683244             -12.7438
        12        2.0000           -0.4625599             -12.5869
        13        2.0000           -0.4417726             -12.0212
        14        2.0000           -0.4395359             -11.9604
        15        2.0000           -0.4039957             -10.9933
        16        2.0000           -0.3912531             -10.6465
        17        2.0000           -0.3773347             -10.2678 (HOMO)
        18                         -0.1932912              -5.2597 (LUMO)
        19                         -0.1429145              -3.8889
        20                         -0.1195619              -3.2534
        21                          0.1163800               3.1669
        22                          0.1336015               3.6355
        23                          0.1567611               4.2657
        24                          0.1697572               4.6193
        25                          0.1911919               5.2026
        26                          0.1983119               5.3963
        27                          0.2217134               6.0331
        28                          0.2353282               6.4036
       ...                                ...                  ...
        34                          0.6448849              17.5482
      -------------------------------------------------------------
                  HL-Gap            0.1840435 Eh            5.0081 eV

     #   Z          covCN         q      C6AA      α(0)
     1   6 C        2.887    -0.037    28.909     8.815
     2   6 C        2.887    -0.037    28.909     8.815
     3   6 C        3.561    -0.067    22.725     6.950
     4   6 C        3.558    -0.062    22.649     6.943
     5   6 C        3.559    -0.062    22.647     6.942
     6   6 C        3.562    -0.067    22.722     6.949
     7   1 H        0.925     0.024     2.668     2.555
     8   1 H        0.925     0.024     2.669     2.555
     9   1 H        0.925     0.036     2.508     2.476
    10   1 H        0.925     0.040     2.449     2.447
    11   1 H        0.925     0.036     2.509     2.477
    12   1 H        0.925     0.030     2.590     2.517
    13   1 H        0.925     0.030     2.590     2.517
    14   1 H        0.925     0.036     2.509     2.477
    15   1 H        0.925     0.040     2.449     2.447
    16   1 H        0.925     0.036     2.507     2.476

Wiberg/Mayer (AO) data.
largest (>0.10) Wiberg bond orders for each atom

     #   Z sym  total        # sym  WBO       # sym  WBO       # sym  WBO
 ---------------------------------------------------------------------------
     1   6 C    3.992 --     2 C    1.914     6 C    1.050     7 H    0.957
     2   6 C    3.992 --     1 C    1.914     3 C    1.050     8 H    0.957
     3   6 C    3.993 --     2 C    1.050     9 H    0.974    10 H    0.966
                             4 C    0.941
     4   6 C    3.994 --     5 C    1.058    11 H    0.984    12 H    0.975
                             3 C    0.941
     5   6 C    3.994 --     4 C    1.058    14 H    0.984    13 H    0.975
                             6 C    0.941
     6   6 C    3.993 --     1 C    1.050    16 H    0.973    15 H    0.966
                             5 C    0.941
     7   1 H    0.999 --     1 C    0.957
     8   1 H    0.999 --     2 C    0.957
     9   1 H    0.999 --     3 C    0.974
    10   1 H    0.998 --     3 C    0.966
    11   1 H    0.999 --     4 C    0.984
    12   1 H    0.999 --     4 C    0.975
    13   1 H    0.999 --     5 C    0.975
    14   1 H    0.999 --     5 C    0.984
    15   1 H    0.998 --     6 C    0.966
    16   1 H    0.999 --     6 C    0.973
 ---------------------------------------------------------------------------

molecular dipole:
                 x           y           z       tot (Debye)
 q only:        0.025      -0.086       0.012
   full:        0.027      -0.091       0.013       0.245

           -------------------------------------------------
          | TOTAL ENERGY              -17.856468040103 Eh   |
          | GRADIENT NORM               0.000535234041 Eh/α |
          | HOMO-LUMO GAP               5.008077323481 eV   |
           -------------------------------------------------

 * finished run on 2025/05/23 at 11:05:31.881
