   * xtb version 6.6.1 (8d0f1dd) compiled by 'conda@1efc2f54142f' on 2023-08-01
          program call               : /gpfs/fs1/home/copan/code/autode-practice/.pixi/envs/default/bin/xtb path_opt3_xtb.xyz --chrg 0 --uhf 0 --opt --input xcontrol_path_opt3_xtb

   ID    Z sym.   atoms
    1    6 C      1-6
    2    1 H      7-16
constraining bond 3 4 to    1.8481000 Å, actual value:    1.7980072 Å
constraining bond 5 6 to    1.8479000 Å, actual value:    1.7978083 Å

          :  Hamiltonian                  GFN2-xTB          :
 * total energy  :   -17.8463837 Eh     change       -0.6597389E-11 Eh
 * total energy  :   -17.8600713 Eh     change       -0.1368761E-01 Eh
 * total energy  :   -17.8686850 Eh     change       -0.8613667E-02 Eh
 * total energy  :   -17.8687074 Eh     change       -0.2242356E-04 Eh
 * total energy  :   -17.8687159 Eh     change       -0.8506922E-05 Eh
 * total energy  :   -17.8687138 Eh     change        0.2061587E-05 Eh
 * total energy  :   -17.8687083 Eh     change        0.5549166E-05 Eh
 * total energy  :   -17.8687157 Eh     change       -0.7434706E-05 Eh
 * total energy  :   -17.8687192 Eh     change       -0.3471656E-05 Eh
 * total energy  :   -17.8687237 Eh     change       -0.4548569E-05 Eh
   *** GEOMETRY OPTIMIZATION CONVERGED AFTER 10 ITERATIONS ***

 final structure:
================
16
 xtb: 6.6.1 (8d0f1dd)
C            0.23429317629440        1.53918674689564       -0.31661244262893
C           -1.02751253569216        1.20881378210567       -0.08772338510523
C           -1.55784342391642       -0.13772405003501        0.22231563314825
C           -0.19023347823356       -1.27287046532908        0.68799443263476
C            0.87956992690031       -1.11529064871481       -0.33493971537273
C            1.41183175767809        0.64266194940683       -0.29823399167938
H            0.47034207205555        2.57605607809646       -0.53247021512480
H           -1.78592059356942        1.98328318297770       -0.13683907206101
H           -2.23482527968668       -0.13264539746070        1.07047669271383
H           -2.03053621774116       -0.60381596860173       -0.63797716493248
H            0.11674444622390       -0.96520292884520        1.68046476831047
H           -0.63909974685209       -2.26121606131878        0.70131136279680
H            1.77827908165286       -1.68416590127065       -0.11756018151208
H            0.53498751850818       -1.29301302556793       -1.34665078819493
H            1.99276699671342        0.74268904399562        0.61461998450439
H            2.04725629966477        0.77352366366598       -1.16820591749693

          :  Hamiltonian                  GFN2-xTB          :
         :: total energy             -17.868723749905 Eh    ::
         :: gradient norm              0.000337127159 Eh/a0 ::
         :: HOMO-LUMO gap              5.077983542651 eV    ::
         :: SCC energy               -18.154030243083 Eh    ::
         :: -> dispersion             -0.009847877395 Eh    ::
         :: repulsion energy           0.283624187671 Eh    ::

    * Orbital Energies and Occupations

         #    Occupation            Energy/Eh            Energy/eV
      -------------------------------------------------------------
         1        2.0000           -0.6163330             -16.7713
       ...           ...                  ...                  ...
         5        2.0000           -0.5530939             -15.0504
         6        2.0000           -0.5208741             -14.1737
         7        2.0000           -0.5103831             -13.8882
         8        2.0000           -0.4921308             -13.3916
         9        2.0000           -0.4777695             -13.0008
        10        2.0000           -0.4703697             -12.7994
        11        2.0000           -0.4684579             -12.7474
        12        2.0000           -0.4630893             -12.6013
        13        2.0000           -0.4431072             -12.0576
        14        2.0000           -0.4385868             -11.9346
        15        2.0000           -0.4062520             -11.0547
        16        2.0000           -0.3938099             -10.7161
        17        2.0000           -0.3784160             -10.2972 (HOMO)
        18                         -0.1918035              -5.2192 (LUMO)
        19                         -0.1262429              -3.4352
        20                         -0.1030249              -2.8035
        21                          0.1168174               3.1788
        22                          0.1332543               3.6260
        23                          0.1569375               4.2705
        24                          0.1664844               4.5303
        25                          0.1885731               5.1313
        26                          0.1939895               5.2787
        27                          0.2224074               6.0520
        28                          0.2338576               6.3636
       ...                                ...                  ...
        34                          0.6441572              17.5284
      -------------------------------------------------------------
                  HL-Gap            0.1866125 Eh            5.0780 eV

     #   Z          covCN         q      C6AA      α(0)
     1   6 C        2.887    -0.037    28.917     8.816
     2   6 C        2.887    -0.037    28.917     8.816
     3   6 C        3.622    -0.066    22.247     6.799
     4   6 C        3.619    -0.061    22.170     6.791
     5   6 C        3.619    -0.061    22.168     6.790
     6   6 C        3.622    -0.066    22.245     6.799
     7   1 H        0.925     0.024     2.677     2.559
     8   1 H        0.925     0.024     2.677     2.559
     9   1 H        0.925     0.035     2.510     2.477
    10   1 H        0.925     0.040     2.449     2.447
    11   1 H        0.925     0.035     2.510     2.477
    12   1 H        0.925     0.029     2.596     2.520
    13   1 H        0.925     0.029     2.596     2.520
    14   1 H        0.925     0.035     2.510     2.477
    15   1 H        0.925     0.040     2.450     2.448
    16   1 H        0.925     0.036     2.509     2.477

Wiberg/Mayer (AO) data.
largest (>0.10) Wiberg bond orders for each atom

     #   Z sym  total        # sym  WBO       # sym  WBO       # sym  WBO
 ---------------------------------------------------------------------------
     1   6 C    3.992 --     2 C    1.916     6 C    1.048     7 H    0.959
     2   6 C    3.992 --     1 C    1.916     3 C    1.048     8 H    0.959
     3   6 C    3.994 --     2 C    1.048     9 H    0.974    10 H    0.966
                             4 C    0.948
     4   6 C    3.994 --     5 C    1.053    11 H    0.984    12 H    0.976
                             3 C    0.948
     5   6 C    3.994 --     4 C    1.053    14 H    0.984    13 H    0.976
                             6 C    0.948
     6   6 C    3.994 --     1 C    1.048    16 H    0.973    15 H    0.966
                             5 C    0.948
     7   1 H    0.999 --     1 C    0.959
     8   1 H    0.999 --     2 C    0.959
     9   1 H    0.999 --     3 C    0.974
    10   1 H    0.998 --     3 C    0.966
    11   1 H    0.999 --     4 C    0.984
    12   1 H    0.999 --     4 C    0.976
    13   1 H    0.999 --     5 C    0.976
    14   1 H    0.999 --     5 C    0.984
    15   1 H    0.998 --     6 C    0.966
    16   1 H    0.999 --     6 C    0.973
 ---------------------------------------------------------------------------

molecular dipole:
                 x           y           z       tot (Debye)
 q only:        0.027      -0.092       0.013
   full:        0.028      -0.097       0.014       0.260

           -------------------------------------------------
          | TOTAL ENERGY              -17.868723749905 Eh   |
          | GRADIENT NORM               0.000337127159 Eh/α |
          | HOMO-LUMO GAP               5.077983542651 eV   |
           -------------------------------------------------

 * finished run on 2025/05/23 at 11:05:31.582
