   * xtb version 6.6.1 (8d0f1dd) compiled by 'conda@1efc2f54142f' on 2023-08-01
          program call               : /gpfs/fs1/home/copan/code/autode-practice/.pixi/envs/default/bin/xtb path_opt10_xtb.xyz --chrg 0 --uhf 0 --opt --input xcontrol_path_opt10_xtb

   ID    Z sym.   atoms
    1    6 C      1-6
    2    1 H      7-16
constraining bond 3 4 to    2.1204000 Å, actual value:    2.0703485 Å
constraining bond 5 6 to    2.1202000 Å, actual value:    2.0702335 Å

          :  Hamiltonian                  GFN2-xTB          :
 * total energy  :   -17.7605007 Eh     change       -0.1060904E-08 Eh
 * total energy  :   -17.7747265 Eh     change       -0.1422577E-01 Eh
 * total energy  :   -17.7823097 Eh     change       -0.7583239E-02 Eh
 * total energy  :   -17.7823356 Eh     change       -0.2590391E-04 Eh
 * total energy  :   -17.7823342 Eh     change        0.1345867E-05 Eh
 * total energy  :   -17.7823462 Eh     change       -0.1195385E-04 Eh
 * total energy  :   -17.7823438 Eh     change        0.2425904E-05 Eh
 * total energy  :   -17.7823591 Eh     change       -0.1530166E-04 Eh
 * total energy  :   -17.7823619 Eh     change       -0.2868978E-05 Eh
   *** GEOMETRY OPTIMIZATION CONVERGED AFTER 9 ITERATIONS ***

 final structure:
================
16
 xtb: 6.6.1 (8d0f1dd)
C            0.21691329176346        1.60460999023160       -0.32497020969483
C           -1.04732082849377        1.27369176985660       -0.09473722175571
C           -1.62831631628603       -0.03815331071705        0.20796981427376
C           -0.13152271089861       -1.43969970181932        0.70397151338743
C            0.91791490776139       -1.28631024837902       -0.29598329241419
C            1.41785519756948        0.76284307875598       -0.32489174132789
H            0.43087808382542        2.65044352011524       -0.53531112959248
H           -1.78927335049079        2.06821228976069       -0.13872352013321
H           -2.23949273512384       -0.06286164534832        1.09976818972417
H           -2.09578333507297       -0.53005288976241       -0.63514457273460
H            0.13238735729396       -1.17084312761205        1.71569032166800
H           -0.73674022247930       -2.33441239968625        0.63385142576999
H            1.89424474384553       -1.67355912692342       -0.03409576928281
H            0.63258584140906       -1.48267875711734       -1.31865597989545
H            2.01962098392437        0.84035435828873        0.57163013737529
H            2.00616909145264        0.81871620035634       -1.23039796536748

          :  Hamiltonian                  GFN2-xTB          :
         :: total energy             -17.782361948292 Eh    ::
         :: gradient norm              0.000480492345 Eh/a0 ::
         :: HOMO-LUMO gap              3.455560478197 eV    ::
         :: SCC energy               -18.074690367201 Eh    ::
         :: -> dispersion             -0.010724409494 Eh    ::
         :: repulsion energy           0.290649911308 Eh    ::

    * Orbital Energies and Occupations

         #    Occupation            Energy/Eh            Energy/eV
      -------------------------------------------------------------
         1        2.0000           -0.6136348             -16.6979
       ...           ...                  ...                  ...
         5        2.0000           -0.5467711             -14.8784
         6        2.0000           -0.5176484             -14.0859
         7        2.0000           -0.5051943             -13.7470
         8        2.0000           -0.4918049             -13.3827
         9        2.0000           -0.4763170             -12.9612
        10        2.0000           -0.4723569             -12.8535
        11        2.0000           -0.4674030             -12.7187
        12        2.0000           -0.4593095             -12.4984
        13        2.0000           -0.4423719             -12.0376
        14        2.0000           -0.4373384             -11.9006
        15        2.0000           -0.3926001             -10.6832
        16        2.0000           -0.3837140             -10.4414
        17        2.0000           -0.3577988              -9.7362 (HOMO)
        18                         -0.2308093              -6.2806 (LUMO)
        19                         -0.1856853              -5.0528
        20                         -0.1830642              -4.9814
        21                          0.1152310               3.1356
        22                          0.1324848               3.6051
        23                          0.1561060               4.2479
        24                          0.1821474               4.9565
        25                          0.2015202               5.4836
        26                          0.2100100               5.7147
        27                          0.2177019               5.9240
        28                          0.2493984               6.7865
       ...                                ...                  ...
        34                          0.6494769              17.6732
      -------------------------------------------------------------
                  HL-Gap            0.1269895 Eh            3.4556 eV

     #   Z          covCN         q      C6AA      α(0)
     1   6 C        2.887    -0.034    28.852     8.806
     2   6 C        2.887    -0.034    28.852     8.806
     3   6 C        3.107    -0.075    29.711     8.931
     4   6 C        3.105    -0.066    29.500     8.900
     5   6 C        3.105    -0.066    29.499     8.899
     6   6 C        3.107    -0.075    29.712     8.931
     7   1 H        0.925     0.029     2.608     2.525
     8   1 H        0.925     0.028     2.609     2.526
     9   1 H        0.925     0.037     2.491     2.468
    10   1 H        0.925     0.040     2.446     2.446
    11   1 H        0.926     0.035     2.517     2.481
    12   1 H        0.925     0.035     2.522     2.483
    13   1 H        0.925     0.035     2.523     2.484
    14   1 H        0.926     0.035     2.517     2.481
    15   1 H        0.925     0.040     2.450     2.447
    16   1 H        0.925     0.037     2.487     2.466

Wiberg/Mayer (AO) data.
largest (>0.10) Wiberg bond orders for each atom

     #   Z sym  total        # sym  WBO       # sym  WBO       # sym  WBO
 ---------------------------------------------------------------------------
     1   6 C    3.992 --     2 C    1.900     6 C    1.068     7 H    0.946
     2   6 C    3.992 --     1 C    1.900     3 C    1.069     8 H    0.947
     3   6 C    3.989 --     2 C    1.069     9 H    0.972    10 H    0.967
                             4 C    0.873
     4   6 C    3.992 --     5 C    1.117    11 H    0.984    12 H    0.968
                             3 C    0.873
     5   6 C    3.992 --     4 C    1.117    14 H    0.984    13 H    0.968
                             6 C    0.873
     6   6 C    3.989 --     1 C    1.068    16 H    0.971    15 H    0.967
                             5 C    0.873
     7   1 H    0.999 --     1 C    0.946
     8   1 H    0.999 --     2 C    0.947
     9   1 H    0.999 --     3 C    0.972
    10   1 H    0.998 --     3 C    0.967
    11   1 H    0.999 --     4 C    0.984
    12   1 H    0.999 --     4 C    0.968
    13   1 H    0.999 --     5 C    0.968
    14   1 H    0.999 --     5 C    0.984
    15   1 H    0.998 --     6 C    0.967
    16   1 H    0.999 --     6 C    0.971
 ---------------------------------------------------------------------------

molecular dipole:
                 x           y           z       tot (Debye)
 q only:        0.016      -0.055       0.007
   full:        0.014      -0.045       0.006       0.121

           -------------------------------------------------
          | TOTAL ENERGY              -17.782361948292 Eh   |
          | GRADIENT NORM               0.000480492345 Eh/α |
          | HOMO-LUMO GAP               3.455560478197 eV   |
           -------------------------------------------------

 * finished run on 2025/05/23 at 11:05:33.421
