                         Program Version 5.0.4 -  RELEASE  -
|  1> ! EnGrad PBE0 RIJCOSX D3BJ def2-SVP def2/J
|  2> %output
|  3> xyzfile=True
|  4> end
|  5> %scf
|  6> maxiter 250
|  7> end
|  8> %output
|  9> Print[P_Hirshfeld] = 1
| 10> end
| 11> % maxcore
| 12> 4000
| 13> *xyz 0 2
| 14> O   -2.42060092   0.38294324   1.63204915
| 15> O   -0.52604276  -0.30578587   0.83217323
| 16> C   -0.72874093   0.20567125  -0.45309176
| 17> C    0.15259596   0.90478514   0.51368498
| 18> C    1.52672343   0.43709969   0.26446471
| 19> C    1.37180060  -0.62032962  -0.53401375
| 20> C    0.10727355  -0.66758837  -1.32883095
| 21> H   -2.13352041  -0.12189740   2.40727085
| 22> H   -1.73347446   0.54976151  -0.70968215
| 23> H   -0.15930870   1.78537162   1.07821650
| 24> H    2.41791079   0.71890858   0.82358224
| 25> H    2.18894155  -1.31084851  -0.76894857
| 26> H    0.26938160  -0.28352810  -2.35049722
| 27> H   -0.33293928  -1.67446654  -1.40638062
| 28> *
| 29>
| 30>                          ****END OF INPUT****

CARTESIAN COORDINATES (ANGSTROEM)
---------------------------------
  O     -2.420601    0.382943    1.632049
  O     -0.526043   -0.305786    0.832173
  C     -0.728741    0.205671   -0.453092
  C      0.152596    0.904785    0.513685
  C      1.526723    0.437100    0.264465
  C      1.371801   -0.620330   -0.534014
  C      0.107274   -0.667588   -1.328831
  H     -2.133520   -0.121897    2.407271
  H     -1.733474    0.549762   -0.709682
  H     -0.159309    1.785372    1.078216
  H      2.417911    0.718909    0.823582
  H      2.188942   -1.310849   -0.768949
  H      0.269382   -0.283528   -2.350497
  H     -0.332939   -1.674467   -1.406381

 Total Charge           Charge          ....    0
 Multiplicity           Mult            ....    2
 Number of Electrons    NEL             ....   53
 Basis Dimension        Dim             ....  133

ORBITAL ENERGIES
----------------
                 SPIN UP ORBITALS
  NO   OCC          E(Eh)            E(eV)
   0   1.0000     -19.237338      -523.4746
   1   1.0000     -19.208261      -522.6834
   2   1.0000     -10.291298      -280.0404
   3   1.0000     -10.289099      -279.9806
   4   1.0000     -10.245243      -278.7872
   5   1.0000     -10.242742      -278.7192
   6   1.0000     -10.236764      -278.5565
   7   1.0000      -1.136751       -30.9326
   8   1.0000      -0.964529       -26.2462
   9   1.0000      -0.845474       -23.0065
  10   1.0000      -0.754064       -20.5191
  11   1.0000      -0.680659       -18.5217
  12   1.0000      -0.601662       -16.3721
  13   1.0000      -0.570075       -15.5125
  14   1.0000      -0.565678       -15.3929
  15   1.0000      -0.477625       -12.9968
  16   1.0000      -0.470521       -12.8035
  17   1.0000      -0.439651       -11.9635
  18   1.0000      -0.434742       -11.8299
  19   1.0000      -0.413400       -11.2492
  20   1.0000      -0.402078       -10.9411
  21   1.0000      -0.385746       -10.4967
  22   1.0000      -0.359784        -9.7902
  23   1.0000      -0.329908        -8.9773
  24   1.0000      -0.296785        -8.0759
  25   1.0000      -0.292117        -7.9489
  26   1.0000      -0.247472        -6.7341
  27   0.0000      -0.007499        -0.2040
  28   0.0000       0.078481         2.1356
  29   0.0000       0.100931         2.7465
  30   0.0000       0.109539         2.9807
  31   0.0000       0.115411         3.1405

                 SPIN DOWN ORBITALS
  NO   OCC          E(Eh)            E(eV)
   0   1.0000     -19.231947      -523.3279
   1   1.0000     -19.183405      -522.0070
   2   1.0000     -10.291434      -280.0442
   3   1.0000     -10.289207      -279.9835
   4   1.0000     -10.245227      -278.7868
   5   1.0000     -10.242591      -278.7151
   6   1.0000     -10.236617      -278.5525
   7   1.0000      -1.129727       -30.7414
   8   1.0000      -0.898905       -24.4604
   9   1.0000      -0.842692       -22.9308
  10   1.0000      -0.753775       -20.5113
  11   1.0000      -0.677996       -18.4492
  12   1.0000      -0.600947       -16.3526
  13   1.0000      -0.568415       -15.4673
  14   1.0000      -0.561562       -15.2809
  15   1.0000      -0.473023       -12.8716
  16   1.0000      -0.469631       -12.7793
  17   1.0000      -0.435072       -11.8389
  18   1.0000      -0.417376       -11.3574
  19   1.0000      -0.406117       -11.0510
  20   1.0000      -0.397576       -10.8186
  21   1.0000      -0.377923       -10.2838
  22   1.0000      -0.330510        -8.9936
  23   1.0000      -0.301436        -8.2025
  24   1.0000      -0.268847        -7.3157
  25   1.0000      -0.252914        -6.8821
  26   0.0000      -0.073155        -1.9907
  27   0.0000      -0.006515        -0.1773
  28   0.0000       0.079819         2.1720
  29   0.0000       0.103848         2.8259
  30   0.0000       0.112080         3.0499

MULLIKEN ATOMIC CHARGES AND SPIN POPULATIONS
--------------------------------------------
   0 O :   -0.260751    0.896418
   1 O :   -0.301560    0.125397
   2 C :    0.004736   -0.007465
   3 C :    0.081742   -0.007816
   4 C :    0.022541    0.006807
   5 C :   -0.138414    0.007014
   6 C :    0.109992   -0.000095
   7 H :    0.170089   -0.023572
   8 H :    0.065773    0.002119
   9 H :    0.049250    0.001942
  10 H :    0.036153   -0.000234
  11 H :    0.031400   -0.000349
  12 H :    0.064916   -0.000070
  13 H :    0.064134   -0.000095
Sum of atomic charges         :    0.0000000

LOEWDIN ATOMIC CHARGES AND SPIN POPULATIONS
-------------------------------------------
   0 O :   -0.156680    0.856202
   1 O :   -0.101398    0.134697
   2 C :    0.055043   -0.002761
   3 C :    0.053424   -0.004316
   4 C :   -0.056514    0.005846
   5 C :   -0.005383    0.005395
   6 C :   -0.048139    0.000303
   7 H :    0.049744    0.002791
   8 H :    0.028332    0.001032
   9 H :    0.028497    0.000926
  10 H :    0.034521    0.000192
  11 H :    0.025437   -0.000049
  12 H :    0.045324   -0.000125
  13 H :    0.047791   -0.000132

  Mayer bond orders larger than 0.100000
B(  0-O ,  1-O ) :   0.1772 B(  0-O ,  7-H ) :   0.9868 B(  1-O ,  2-C ) :   0.9176
B(  1-O ,  3-C ) :   0.8985 B(  2-C ,  3-C ) :   1.0211 B(  2-C ,  6-C ) :   0.9995
B(  2-C ,  8-H ) :   0.9659 B(  3-C ,  4-C ) :   0.9676 B(  3-C ,  9-H ) :   0.9779
B(  4-C ,  5-C ) :   1.8325 B(  4-C , 10-H ) :   0.9957 B(  5-C ,  6-C ) :   1.0212
B(  5-C , 11-H ) :   0.9666 B(  6-C , 12-H ) :   0.9249 B(  6-C , 13-H ) :   0.9223

Dispersion correction           -0.009786748
FINAL SINGLE POINT ENERGY      -344.372460486923
Dispersion correction            ... done

DIPOLE MOMENT
-------------
                                X             Y             Z
Electronic contribution:     -0.96221       0.55606       1.88023
Nuclear contribution   :      1.60226      -0.58189      -2.16533
                        -----------------------------------------
Total Dipole Moment    :      0.64005      -0.02583      -0.28511
                        -----------------------------------------
Magnitude (a.u.)       :      0.70115
Magnitude (Debye)      :      1.78218

Rotational constants in cm-1:     0.201637     0.070331     0.059565
Rotational constants in MHz :  6044.915680  2108.482146  1785.707376

                             ****ORCA TERMINATED NORMALLY****
TOTAL RUN TIME: 0 days 0 hours 1 minutes 15 seconds 272 msec
