                         Program Version 5.0.4 -  RELEASE  -
|  1> ! EnGrad PBE0 RIJCOSX D3BJ def2-SVP def2/J
|  2> %output
|  3> xyzfile=True
|  4> end
|  5> %scf
|  6> maxiter 250
|  7> end
|  8> %output
|  9> Print[P_Hirshfeld] = 1
| 10> end
| 11> % maxcore
| 12> 4000
| 13> *xyz 0 2
| 14> O   -2.44003108   0.39653041   1.63994503
| 15> O   -0.62864976  -0.29530169   0.91024118
| 16> C   -0.73263770   0.20743542  -0.46080588
| 17> C    0.14970041   0.90516625   0.51235913
| 18> C    1.52751304   0.43589079   0.26725753
| 19> C    1.49939191  -0.64455687  -0.62646991
| 20> C    0.10883876  -0.66430821  -1.32500387
| 21> H   -2.13380428  -0.12611151   2.41049755
| 22> H   -1.73527936   0.54899555  -0.70389361
| 23> H   -0.16014054   1.78631932   1.07654424
| 24> H    2.41784832   0.71914996   0.82378263
| 25> H    2.18998998  -1.31054160  -0.76760036
| 26> H    0.26990267  -0.28404923  -2.35014489
| 27> H   -0.33246601  -1.67456771  -1.40650260
| 28> *
| 29>
| 30>                          ****END OF INPUT****

CARTESIAN COORDINATES (ANGSTROEM)
---------------------------------
  O     -2.440031    0.396530    1.639945
  O     -0.628650   -0.295302    0.910241
  C     -0.732638    0.207435   -0.460806
  C      0.149700    0.905166    0.512359
  C      1.527513    0.435891    0.267258
  C      1.499392   -0.644557   -0.626470
  C      0.108839   -0.664308   -1.325004
  H     -2.133804   -0.126112    2.410498
  H     -1.735279    0.548996   -0.703894
  H     -0.160141    1.786319    1.076544
  H      2.417848    0.719150    0.823783
  H      2.189990   -1.310542   -0.767600
  H      0.269903   -0.284049   -2.350145
  H     -0.332466   -1.674568   -1.406503

 Total Charge           Charge          ....    0
 Multiplicity           Mult            ....    2
 Number of Electrons    NEL             ....   53
 Basis Dimension        Dim             ....  133

ORBITAL ENERGIES
----------------
                 SPIN UP ORBITALS
  NO   OCC          E(Eh)            E(eV)
   0   1.0000     -19.239716      -523.5393
   1   1.0000     -19.197190      -522.3821
   2   1.0000     -10.298563      -280.2382
   3   1.0000     -10.295542      -280.1559
   4   1.0000     -10.253869      -279.0220
   5   1.0000     -10.252351      -278.9806
   6   1.0000     -10.251544      -278.9587
   7   1.0000      -1.097817       -29.8731
   8   1.0000      -0.950870       -25.8745
   9   1.0000      -0.839052       -22.8318
  10   1.0000      -0.746247       -20.3064
  11   1.0000      -0.693987       -18.8844
  12   1.0000      -0.600704       -16.3460
  13   1.0000      -0.585197       -15.9240
  14   1.0000      -0.558605       -15.2004
  15   1.0000      -0.479366       -13.0442
  16   1.0000      -0.462951       -12.5975
  17   1.0000      -0.437917       -11.9163
  18   1.0000      -0.422634       -11.5005
  19   1.0000      -0.417484       -11.3603
  20   1.0000      -0.408297       -11.1103
  21   1.0000      -0.374517       -10.1911
  22   1.0000      -0.369900       -10.0655
  23   1.0000      -0.332278        -9.0418
  24   1.0000      -0.286045        -7.7837
  25   1.0000      -0.279242        -7.5986
  26   1.0000      -0.249389        -6.7862
  27   0.0000      -0.025468        -0.6930
  28   0.0000       0.080489         2.1902
  29   0.0000       0.091050         2.4776
  30   0.0000       0.107048         2.9129
  31   0.0000       0.111780         3.0417

                 SPIN DOWN ORBITALS
  NO   OCC          E(Eh)            E(eV)
   0   1.0000     -19.233314      -523.3651
   1   1.0000     -19.172542      -521.7114
   2   1.0000     -10.298699      -280.2419
   3   1.0000     -10.295714      -280.1606
   4   1.0000     -10.253861      -279.0217
   5   1.0000     -10.252380      -278.9814
   6   1.0000     -10.251258      -278.9509
   7   1.0000      -1.089031       -29.6340
   8   1.0000      -0.887783       -24.1578
   9   1.0000      -0.835405       -22.7325
  10   1.0000      -0.746188       -20.3048
  11   1.0000      -0.690773       -18.7969
  12   1.0000      -0.599821       -16.3220
  13   1.0000      -0.584380       -15.9018
  14   1.0000      -0.554850       -15.0982
  15   1.0000      -0.472913       -12.8686
  16   1.0000      -0.461121       -12.5477
  17   1.0000      -0.431688       -11.7468
  18   1.0000      -0.416459       -11.3324
  19   1.0000      -0.414804       -11.2874
  20   1.0000      -0.392125       -10.6703
  21   1.0000      -0.373216       -10.1557
  22   1.0000      -0.336861        -9.1665
  23   1.0000      -0.298484        -8.1222
  24   1.0000      -0.261180        -7.1071
  25   1.0000      -0.257319        -7.0020
  26   0.0000      -0.056978        -1.5504
  27   0.0000      -0.023151        -0.6300
  28   0.0000       0.082339         2.2406
  29   0.0000       0.093271         2.5380
  30   0.0000       0.108113         2.9419

MULLIKEN ATOMIC CHARGES AND SPIN POPULATIONS
--------------------------------------------
   0 O :   -0.281428    0.875951
   1 O :   -0.331935    0.148639
   2 C :    0.025911   -0.009872
   3 C :    0.082218   -0.006663
   4 C :    0.025189   -0.008003
   5 C :   -0.059363    0.019314
   6 C :    0.074325   -0.000907
   7 H :    0.172952   -0.023241
   8 H :    0.075361    0.002809
   9 H :    0.059527    0.002083
  10 H :    0.038551    0.000515
  11 H :   -0.024676   -0.000866
  12 H :    0.071809    0.000236
  13 H :    0.071560    0.000005
Sum of atomic charges         :    0.0000000

LOEWDIN ATOMIC CHARGES AND SPIN POPULATIONS
-------------------------------------------
   0 O :   -0.185058    0.835862
   1 O :   -0.140579    0.160663
   2 C :    0.078640   -0.005280
   3 C :    0.069624   -0.004803
   4 C :   -0.047208   -0.004915
   5 C :    0.029306    0.014506
   6 C :   -0.046642    0.000222
   7 H :    0.053437    0.000931
   8 H :    0.033712    0.001333
   9 H :    0.032763    0.000932
  10 H :    0.031293    0.000230
  11 H :   -0.004631    0.000229
  12 H :    0.047069    0.000126
  13 H :    0.048276   -0.000036

  Mayer bond orders larger than 0.100000
B(  0-O ,  1-O ) :   0.2082 B(  0-O ,  7-H ) :   0.9832 B(  1-O ,  2-C ) :   0.8988
B(  1-O ,  3-C ) :   0.8726 B(  2-C ,  3-C ) :   1.0218 B(  2-C ,  6-C ) :   1.0077
B(  2-C ,  8-H ) :   0.9613 B(  3-C ,  4-C ) :   0.9844 B(  3-C ,  9-H ) :   0.9715
B(  4-C ,  5-C ) :   1.8054 B(  4-C , 10-H ) :   0.9951 B(  5-C ,  6-C ) :   1.0045
B(  5-C , 11-H ) :   1.0013 B(  6-C , 12-H ) :   0.9278 B(  6-C , 13-H ) :   0.9284

Dispersion correction           -0.009769893
FINAL SINGLE POINT ENERGY      -344.365590578266
Dispersion correction            ... done

DIPOLE MOMENT
-------------
                                X             Y             Z
Electronic contribution:     -0.81006       0.52708       1.73841
Nuclear contribution   :      1.63113      -0.59475      -2.17181
                        -----------------------------------------
Total Dipole Moment    :      0.82108      -0.06767      -0.43340
                        -----------------------------------------
Magnitude (a.u.)       :      0.93090
Magnitude (Debye)      :      2.36617

Rotational constants in cm-1:     0.201086     0.067005     0.057219
Rotational constants in MHz :  6028.415435  2008.745287  1715.396693

                             ****ORCA TERMINATED NORMALLY****
TOTAL RUN TIME: 0 days 0 hours 1 minutes 7 seconds 848 msec
