                         Program Version 5.0.4 -  RELEASE  -
|  1> ! EnGrad PBE0 RIJCOSX D3BJ def2-SVP def2/J
|  2> %output
|  3> xyzfile=True
|  4> end
|  5> %scf
|  6> maxiter 250
|  7> end
|  8> %output
|  9> Print[P_Hirshfeld] = 1
| 10> end
| 11> % maxcore
| 12> 4000
| 13> *xyz 0 2
| 14> O   -2.44271465   0.39698459   1.64442415
| 15> O   -0.62378672  -0.28882441   0.90064105
| 16> C   -0.72938960   0.20504895  -0.44989684
| 17> C    0.14566929   0.89788020   0.51273627
| 18> C    1.53016943   0.41986019   0.25622969
| 19> C    1.46167201  -0.60185195  -0.61116878
| 20> C    0.11739036  -0.66858594  -1.32517540
| 21> H   -2.13553032  -0.12443550   2.40807332
| 22> H   -1.73589113   0.54974366  -0.70502511
| 23> H   -0.15945306   1.78704257   1.07569816
| 24> H    2.41778981   0.72005446   0.82509553
| 25> H    2.21809129  -1.33502534  -0.77463015
| 26> H    0.26799799  -0.28378204  -2.35019866
| 27> H   -0.33180609  -1.67408022  -1.40661082
| 28> *
| 29>
| 30>                          ****END OF INPUT****

CARTESIAN COORDINATES (ANGSTROEM)
---------------------------------
  O     -2.442715    0.396985    1.644424
  O     -0.623787   -0.288824    0.900641
  C     -0.729390    0.205049   -0.449897
  C      0.145669    0.897880    0.512736
  C      1.530169    0.419860    0.256230
  C      1.461672   -0.601852   -0.611169
  C      0.117390   -0.668586   -1.325175
  H     -2.135530   -0.124435    2.408073
  H     -1.735891    0.549744   -0.705025
  H     -0.159453    1.787043    1.075698
  H      2.417790    0.720054    0.825096
  H      2.218091   -1.335025   -0.774630
  H      0.267998   -0.283782   -2.350199
  H     -0.331806   -1.674080   -1.406611

 Total Charge           Charge          ....    0
 Multiplicity           Mult            ....    2
 Number of Electrons    NEL             ....   53
 Basis Dimension        Dim             ....  133

ORBITAL ENERGIES
----------------
                 SPIN UP ORBITALS
  NO   OCC          E(Eh)            E(eV)
   0   1.0000     -19.239515      -523.5338
   1   1.0000     -19.199130      -522.4349
   2   1.0000     -10.296073      -280.1704
   3   1.0000     -10.293160      -280.0911
   4   1.0000     -10.251194      -278.9492
   5   1.0000     -10.249246      -278.8962
   6   1.0000     -10.245141      -278.7845
   7   1.0000      -1.109719       -30.1970
   8   1.0000      -0.954772       -25.9807
   9   1.0000      -0.847242       -23.0546
  10   1.0000      -0.747208       -20.3326
  11   1.0000      -0.687987       -18.7211
  12   1.0000      -0.600538       -16.3415
  13   1.0000      -0.573826       -15.6146
  14   1.0000      -0.560554       -15.2534
  15   1.0000      -0.480771       -13.0824
  16   1.0000      -0.463227       -12.6050
  17   1.0000      -0.433766       -11.8034
  18   1.0000      -0.425381       -11.5752
  19   1.0000      -0.418692       -11.3932
  20   1.0000      -0.404949       -11.0192
  21   1.0000      -0.380868       -10.3639
  22   1.0000      -0.366399        -9.9702
  23   1.0000      -0.332200        -9.0396
  24   1.0000      -0.288488        -7.8502
  25   1.0000      -0.282225        -7.6797
  26   1.0000      -0.254260        -6.9188
  27   0.0000      -0.012751        -0.3470
  28   0.0000       0.077613         2.1119
  29   0.0000       0.096860         2.6357
  30   0.0000       0.108178         2.9437
  31   0.0000       0.111854         3.0437

                 SPIN DOWN ORBITALS
  NO   OCC          E(Eh)            E(eV)
   0   1.0000     -19.233346      -523.3659
   1   1.0000     -19.174382      -521.7615
   2   1.0000     -10.296210      -280.1741
   3   1.0000     -10.293319      -280.0955
   4   1.0000     -10.251178      -278.9487
   5   1.0000     -10.249029      -278.8903
   6   1.0000     -10.245113      -278.7837
   7   1.0000      -1.101406       -29.9708
   8   1.0000      -0.891280       -24.2530
   9   1.0000      -0.843701       -22.9583
  10   1.0000      -0.747071       -20.3288
  11   1.0000      -0.684720       -18.6322
  12   1.0000      -0.599829       -16.3222
  13   1.0000      -0.572742       -15.5851
  14   1.0000      -0.556513       -15.1435
  15   1.0000      -0.474117       -12.9014
  16   1.0000      -0.462031       -12.5725
  17   1.0000      -0.424729       -11.5575
  18   1.0000      -0.421814       -11.4781
  19   1.0000      -0.410689       -11.1754
  20   1.0000      -0.393460       -10.7066
  21   1.0000      -0.376830       -10.2541
  22   1.0000      -0.337310        -9.1787
  23   1.0000      -0.297120        -8.0850
  24   1.0000      -0.266488        -7.2515
  25   1.0000      -0.260321        -7.0837
  26   0.0000      -0.059397        -1.6163
  27   0.0000      -0.011157        -0.3036
  28   0.0000       0.079034         2.1506
  29   0.0000       0.099750         2.7143
  30   0.0000       0.108595         2.9550

MULLIKEN ATOMIC CHARGES AND SPIN POPULATIONS
--------------------------------------------
   0 O :   -0.274487    0.881731
   1 O :   -0.324526    0.141834
   2 C :    0.015857   -0.008975
   3 C :    0.073832   -0.006819
   4 C :    0.031970   -0.002716
   5 C :   -0.122494    0.013334
   6 C :    0.086709   -0.000328
   7 H :    0.171197   -0.023013
   8 H :    0.074301    0.003066
   9 H :    0.058288    0.002303
  10 H :    0.038617    0.000261
  11 H :    0.030730   -0.000757
  12 H :    0.070160    0.000142
  13 H :    0.069847   -0.000063
Sum of atomic charges         :   -0.0000000

LOEWDIN ATOMIC CHARGES AND SPIN POPULATIONS
-------------------------------------------
   0 O :   -0.176449    0.841100
   1 O :   -0.128904    0.153817
   2 C :    0.069905   -0.004406
   3 C :    0.065885   -0.004445
   4 C :   -0.054453   -0.000896
   5 C :    0.001280    0.009839
   6 C :   -0.048173    0.000468
   7 H :    0.050481    0.001802
   8 H :    0.032873    0.001535
   9 H :    0.031999    0.001085
  10 H :    0.035001    0.000211
  11 H :    0.024822   -0.000087
  12 H :    0.047494    0.000060
  13 H :    0.048239   -0.000083

  Mayer bond orders larger than 0.100000
B(  0-O ,  1-O ) :   0.2000 B(  0-O ,  7-H ) :   0.9850 B(  1-O ,  2-C ) :   0.9063
B(  1-O ,  3-C ) :   0.8803 B(  2-C ,  3-C ) :   1.0274 B(  2-C ,  6-C ) :   1.0047
B(  2-C ,  8-H ) :   0.9586 B(  3-C ,  4-C ) :   0.9741 B(  3-C ,  9-H ) :   0.9699
B(  4-C ,  5-C ) :   1.8232 B(  4-C , 10-H ) :   0.9953 B(  5-C ,  6-C ) :   1.0133
B(  5-C , 11-H ) :   0.9777 B(  6-C , 12-H ) :   0.9270 B(  6-C , 13-H ) :   0.9272

Dispersion correction           -0.009766598
FINAL SINGLE POINT ENERGY      -344.384392378334
Dispersion correction            ... done

DIPOLE MOMENT
-------------
                                X             Y             Z
Electronic contribution:     -0.87510       0.55978       1.78449
Nuclear contribution   :      1.67257      -0.62934      -2.18769
                        -----------------------------------------
Total Dipole Moment    :      0.79747      -0.06956      -0.40320
                        -----------------------------------------
Magnitude (a.u.)       :      0.89631
Magnitude (Debye)      :      2.27823

Rotational constants in cm-1:     0.204392     0.067503     0.057586
Rotational constants in MHz :  6127.515954  2023.686036  1726.372109

                             ****ORCA TERMINATED NORMALLY****
TOTAL RUN TIME: 0 days 0 hours 1 minutes 9 seconds 205 msec
