                         Program Version 5.0.4 -  RELEASE  -
|  1> ! EnGrad PBE0 RIJCOSX D3BJ def2-SVP def2/J
|  2> %output
|  3> xyzfile=True
|  4> end
|  5> %scf
|  6> maxiter 250
|  7> end
|  8> %output
|  9> Print[P_Hirshfeld] = 1
| 10> end
| 11> % maxcore
| 12> 4000
| 13> *xyz 0 2
| 14> O   -2.27619000  -0.87761000   0.95343000
| 15> O   -0.86951000   0.12748000   1.06381000
| 16> C   -0.65441000   0.57250000  -0.23659000
| 17> C    0.54120000   1.40417000   0.13698000
| 18> C    1.61561000   0.51893000   0.21334000
| 19> C    1.22860000  -0.71137000  -0.29489000
| 20> C   -0.09093000  -0.62249000  -0.98514000
| 21> H   -2.21366000  -1.13676000   1.88469000
| 22> H   -1.52549000   1.09102000  -0.66654000
| 23> H    0.48807000   2.42758000   0.50662000
| 24> H    2.59272000   0.74134000   0.64561000
| 25> H    1.86794000  -1.59697000  -0.31169000
| 26> H    0.04212000  -0.44545000  -2.06856000
| 27> H   -0.74609000  -1.49227000  -0.84107000
| 28> *
| 29>
| 30>                          ****END OF INPUT****

CARTESIAN COORDINATES (ANGSTROEM)
---------------------------------
  O     -2.276190   -0.877610    0.953430
  O     -0.869510    0.127480    1.063810
  C     -0.654410    0.572500   -0.236590
  C      0.541200    1.404170    0.136980
  C      1.615610    0.518930    0.213340
  C      1.228600   -0.711370   -0.294890
  C     -0.090930   -0.622490   -0.985140
  H     -2.213660   -1.136760    1.884690
  H     -1.525490    1.091020   -0.666540
  H      0.488070    2.427580    0.506620
  H      2.592720    0.741340    0.645610
  H      1.867940   -1.596970   -0.311690
  H      0.042120   -0.445450   -2.068560
  H     -0.746090   -1.492270   -0.841070

 Total Charge           Charge          ....    0
 Multiplicity           Mult            ....    2
 Number of Electrons    NEL             ....   53
 Basis Dimension        Dim             ....  133

ORBITAL ENERGIES
----------------
                 SPIN UP ORBITALS
  NO   OCC          E(Eh)            E(eV)
   0   1.0000     -19.256821      -524.0048
   1   1.0000     -19.235122      -523.4143
   2   1.0000     -10.287478      -279.9365
   3   1.0000     -10.259854      -279.1848
   4   1.0000     -10.254060      -279.0271
   5   1.0000     -10.245830      -278.8032
   6   1.0000     -10.233237      -278.4605
   7   1.0000      -1.059901       -28.8414
   8   1.0000      -0.956845       -26.0371
   9   1.0000      -0.861720       -23.4486
  10   1.0000      -0.740288       -20.1443
  11   1.0000      -0.706441       -19.2232
  12   1.0000      -0.580707       -15.8018
  13   1.0000      -0.560842       -15.2613
  14   1.0000      -0.547094       -14.8872
  15   1.0000      -0.489281       -13.3140
  16   1.0000      -0.473639       -12.8884
  17   1.0000      -0.439544       -11.9606
  18   1.0000      -0.411235       -11.1903
  19   1.0000      -0.402516       -10.9530
  20   1.0000      -0.400227       -10.8907
  21   1.0000      -0.381291       -10.3754
  22   1.0000      -0.353153        -9.6098
  23   1.0000      -0.330071        -8.9817
  24   1.0000      -0.318846        -8.6762
  25   1.0000      -0.267327        -7.2743
  26   1.0000      -0.209186        -5.6922
  27   0.0000      -0.065195        -1.7740
  28   0.0000       0.033018         0.8985
  29   0.0000       0.080296         2.1850
  30   0.0000       0.098537         2.6813
  31   0.0000       0.116598         3.1728

                 SPIN DOWN ORBITALS
  NO   OCC          E(Eh)            E(eV)
   0   1.0000     -19.258787      -524.0582
   1   1.0000     -19.228358      -523.2302
   2   1.0000     -10.287852      -279.9467
   3   1.0000     -10.251430      -278.9556
   4   1.0000     -10.249694      -278.9083
   5   1.0000     -10.244196      -278.7588
   6   1.0000     -10.233812      -278.4762
   7   1.0000      -1.058666       -28.8078
   8   1.0000      -0.943371       -25.6704
   9   1.0000      -0.853673       -23.2296
  10   1.0000      -0.734629       -19.9903
  11   1.0000      -0.693943       -18.8832
  12   1.0000      -0.574776       -15.6404
  13   1.0000      -0.557288       -15.1646
  14   1.0000      -0.540381       -14.7045
  15   1.0000      -0.482700       -13.1349
  16   1.0000      -0.470147       -12.7933
  17   1.0000      -0.433960       -11.8087
  18   1.0000      -0.407256       -11.0820
  19   1.0000      -0.398489       -10.8435
  20   1.0000      -0.395736       -10.7685
  21   1.0000      -0.377524       -10.2730
  22   1.0000      -0.341377        -9.2893
  23   1.0000      -0.323065        -8.7911
  24   1.0000      -0.297885        -8.1059
  25   1.0000      -0.263601        -7.1729
  26   0.0000      -0.087998        -2.3945
  27   0.0000      -0.038479        -1.0471
  28   0.0000       0.057513         1.5650
  29   0.0000       0.082508         2.2452
  30   0.0000       0.101550         2.7633

MULLIKEN ATOMIC CHARGES AND SPIN POPULATIONS
--------------------------------------------
   0 O :   -0.238353    0.238274
   1 O :   -0.260743   -0.101363
   2 C :    0.043398   -0.036680
   3 C :   -0.024161    0.606106
   4 C :    0.003118   -0.302244
   5 C :   -0.076872    0.668826
   6 C :    0.080840   -0.054774
   7 H :    0.185438   -0.005162
   8 H :    0.042542    0.002989
   9 H :    0.050376   -0.028926
  10 H :    0.033682    0.010934
  11 H :    0.035256   -0.032695
  12 H :    0.058573    0.029551
  13 H :    0.066905    0.005163
Sum of atomic charges         :    0.0000000

LOEWDIN ATOMIC CHARGES AND SPIN POPULATIONS
-------------------------------------------
   0 O :   -0.132384    0.217717
   1 O :   -0.089291   -0.078616
   2 C :    0.037617    0.002247
   3 C :   -0.005211    0.469040
   4 C :   -0.034330   -0.165452
   5 C :    0.017879    0.531459
   6 C :   -0.054546   -0.007752
   7 H :    0.065510    0.002129
   8 H :    0.019918    0.002323
   9 H :    0.031972   -0.000825
  10 H :    0.035457    0.000825
  11 H :    0.025786   -0.001324
  12 H :    0.040714    0.023344
  13 H :    0.040908    0.004886

  Mayer bond orders larger than 0.100000
B(  0-O ,  1-O ) :   0.7945 B(  0-O ,  7-H ) :   0.9751 B(  1-O ,  2-C ) :   0.9481
B(  1-O ,  3-C ) :   0.1020 B(  2-C ,  3-C ) :   0.9805 B(  2-C ,  6-C ) :   1.0174
B(  2-C ,  8-H ) :   0.9487 B(  3-C ,  4-C ) :   1.3361 B(  3-C ,  9-H ) :   0.9928
B(  4-C ,  5-C ) :   1.4348 B(  4-C , 10-H ) :   0.9932 B(  5-C ,  6-C ) :   0.9973
B(  5-C , 11-H ) :   0.9802 B(  6-C , 12-H ) :   0.9244 B(  6-C , 13-H ) :   0.9268

Dispersion correction           -0.010255888
FINAL SINGLE POINT ENERGY      -344.359757397307
Dispersion correction            ... done

DIPOLE MOMENT
-------------
                                X             Y             Z
Electronic contribution:     -1.07101       0.55477       1.83969
Nuclear contribution   :      1.63315      -0.49950      -1.92717
                        -----------------------------------------
Total Dipole Moment    :      0.56215       0.05527      -0.08748
                        -----------------------------------------
Magnitude (a.u.)       :      0.57159
Magnitude (Debye)      :      1.45287

Rotational constants in cm-1:     0.173829     0.074960     0.065292
Rotational constants in MHz :  5211.254561  2247.243276  1957.413291

                             ****ORCA TERMINATED NORMALLY****
TOTAL RUN TIME: 0 days 0 hours 1 minutes 42 seconds 126 msec
