                         Program Version 5.0.4 -  RELEASE  -
|  1> ! EnGrad PBE0 RIJCOSX D3BJ def2-SVP def2/J
|  2> %output
|  3> xyzfile=True
|  4> end
|  5> %scf
|  6> maxiter 250
|  7> end
|  8> %output
|  9> Print[P_Hirshfeld] = 1
| 10> end
| 11> % maxcore
| 12> 4000
| 13> *xyz 0 2
| 14> O   -2.15555473  -0.82208020   0.97104265
| 15> O   -0.99899618   0.07467899   1.07819252
| 16> C   -0.65600426   0.57496523  -0.24744417
| 17> C    0.53640379   1.40470921   0.13563078
| 18> C    1.61077757   0.51702190   0.21627291
| 19> C    1.26889621  -0.73201149  -0.32351079
| 20> C   -0.09206439  -0.61850038  -0.99767754
| 21> H   -2.19992808  -1.12109619   1.90113589
| 22> H   -1.53155065   1.09147506  -0.66803736
| 23> H    0.48153351   2.42642228   0.50992043
| 24> H    2.58371073   0.73331091   0.65874747
| 25> H    1.85064808  -1.60109815  -0.29595284
| 26> H    0.05372149  -0.44185946  -2.07922144
| 27> H   -0.75135677  -1.48594703  -0.85916816
| 28> *
| 29>
| 30>                          ****END OF INPUT****

CARTESIAN COORDINATES (ANGSTROEM)
---------------------------------
  O     -2.155555   -0.822080    0.971043
  O     -0.998996    0.074679    1.078193
  C     -0.656004    0.574965   -0.247444
  C      0.536404    1.404709    0.135631
  C      1.610778    0.517022    0.216273
  C      1.268896   -0.732011   -0.323511
  C     -0.092064   -0.618500   -0.997678
  H     -2.199928   -1.121096    1.901136
  H     -1.531551    1.091475   -0.668037
  H      0.481534    2.426422    0.509920
  H      2.583711    0.733311    0.658747
  H      1.850648   -1.601098   -0.295953
  H      0.053721   -0.441859   -2.079221
  H     -0.751357   -1.485947   -0.859168

 Total Charge           Charge          ....    0
 Multiplicity           Mult            ....    2
 Number of Electrons    NEL             ....   53
 Basis Dimension        Dim             ....  133

ORBITAL ENERGIES
----------------
                 SPIN UP ORBITALS
  NO   OCC          E(Eh)            E(eV)
   0   1.0000     -19.251465      -523.8590
   1   1.0000     -19.247348      -523.7470
   2   1.0000     -10.287664      -279.9416
   3   1.0000     -10.245784      -278.8020
   4   1.0000     -10.244653      -278.7712
   5   1.0000     -10.239429      -278.6290
   6   1.0000     -10.234123      -278.4846
   7   1.0000      -1.114162       -30.3179
   8   1.0000      -0.934588       -25.4314
   9   1.0000      -0.848177       -23.0801
  10   1.0000      -0.730772       -19.8853
  11   1.0000      -0.707640       -19.2559
  12   1.0000      -0.583035       -15.8652
  13   1.0000      -0.558547       -15.1988
  14   1.0000      -0.542506       -14.7623
  15   1.0000      -0.509688       -13.8693
  16   1.0000      -0.495121       -13.4729
  17   1.0000      -0.445148       -12.1131
  18   1.0000      -0.408046       -11.1035
  19   1.0000      -0.401479       -10.9248
  20   1.0000      -0.388944       -10.5837
  21   1.0000      -0.376538       -10.2461
  22   1.0000      -0.358375        -9.7519
  23   1.0000      -0.343183        -9.3385
  24   1.0000      -0.319224        -8.6865
  25   1.0000      -0.247791        -6.7427
  26   1.0000      -0.203863        -5.5474
  27   0.0000       0.019496         0.5305
  28   0.0000       0.058229         1.5845
  29   0.0000       0.084610         2.3024
  30   0.0000       0.097453         2.6518
  31   0.0000       0.117910         3.2085

                 SPIN DOWN ORBITALS
  NO   OCC          E(Eh)            E(eV)
   0   1.0000     -19.250276      -523.8266
   1   1.0000     -19.246690      -523.7291
   2   1.0000     -10.288097      -279.9533
   3   1.0000     -10.243757      -278.7468
   4   1.0000     -10.235995      -278.5356
   5   1.0000     -10.234695      -278.5002
   6   1.0000     -10.234086      -278.4836
   7   1.0000      -1.111778       -30.2530
   8   1.0000      -0.930079       -25.3087
   9   1.0000      -0.839686       -22.8490
  10   1.0000      -0.724949       -19.7269
  11   1.0000      -0.692687       -18.8490
  12   1.0000      -0.575087       -15.6489
  13   1.0000      -0.554561       -15.0904
  14   1.0000      -0.534558       -14.5461
  15   1.0000      -0.506743       -13.7892
  16   1.0000      -0.491386       -13.3713
  17   1.0000      -0.440167       -11.9775
  18   1.0000      -0.403714       -10.9856
  19   1.0000      -0.396835       -10.7984
  20   1.0000      -0.384499       -10.4628
  21   1.0000      -0.372190       -10.1278
  22   1.0000      -0.355943        -9.6857
  23   1.0000      -0.340025        -9.2526
  24   1.0000      -0.294101        -8.0029
  25   1.0000      -0.245257        -6.6738
  26   0.0000      -0.066916        -1.8209
  27   0.0000       0.033297         0.9061
  28   0.0000       0.070826         1.9273
  29   0.0000       0.089415         2.4331
  30   0.0000       0.101870         2.7720

MULLIKEN ATOMIC CHARGES AND SPIN POPULATIONS
--------------------------------------------
   0 O :   -0.180554    0.021052
   1 O :   -0.285792    0.019293
   2 C :    0.061049   -0.042607
   3 C :   -0.025898    0.685880
   4 C :   -0.000061   -0.335200
   5 C :   -0.065237    0.728991
   6 C :    0.051593   -0.056567
   7 H :    0.196036    0.000110
   8 H :    0.040866    0.001750
   9 H :    0.041441   -0.032716
  10 H :    0.028659    0.012204
  11 H :    0.012688   -0.034422
  12 H :    0.061922    0.027176
  13 H :    0.063287    0.005054
Sum of atomic charges         :   -0.0000000

LOEWDIN ATOMIC CHARGES AND SPIN POPULATIONS
-------------------------------------------
   0 O :   -0.089239    0.018560
   1 O :   -0.117391    0.027225
   2 C :    0.061443    0.002136
   3 C :   -0.031451    0.535626
   4 C :   -0.032737   -0.184534
   5 C :    0.009351    0.578184
   6 C :   -0.052398   -0.007963
   7 H :    0.082684    0.000840
   8 H :    0.018886    0.001383
   9 H :    0.028476   -0.001161
  10 H :    0.031888    0.000986
  11 H :    0.013079    0.002453
  12 H :    0.041079    0.021537
  13 H :    0.036329    0.004728

  Mayer bond orders larger than 0.100000
B(  0-O ,  1-O ) :   0.9185 B(  0-O ,  7-H ) :   0.9684 B(  1-O ,  2-C ) :   0.8864
B(  2-C ,  3-C ) :   1.0107 B(  2-C ,  6-C ) :   1.0279 B(  2-C ,  8-H ) :   0.9502
B(  3-C ,  4-C ) :   1.3796 B(  3-C ,  9-H ) :   0.9923 B(  4-C ,  5-C ) :   1.3979
B(  4-C , 10-H ) :   0.9915 B(  5-C ,  6-C ) :   0.9915 B(  5-C , 11-H ) :   0.9938
B(  6-C , 12-H ) :   0.9281 B(  6-C , 13-H ) :   0.9314

Dispersion correction           -0.010130949
FINAL SINGLE POINT ENERGY      -344.382612956063
Dispersion correction            ... done

DIPOLE MOMENT
-------------
                                X             Y             Z
Electronic contribution:     -1.38260       0.36516       1.95850
Nuclear contribution   :      1.60371      -0.47885      -1.90446
                        -----------------------------------------
Total Dipole Moment    :      0.22111      -0.11369       0.05404
                        -----------------------------------------
Magnitude (a.u.)       :      0.25443
Magnitude (Debye)      :      0.64671

Rotational constants in cm-1:     0.172519     0.076147     0.066326
Rotational constants in MHz :  5172.004405  2282.816198  1988.412619

                             ****ORCA TERMINATED NORMALLY****
TOTAL RUN TIME: 0 days 0 hours 1 minutes 5 seconds 889 msec
