                         Program Version 5.0.4 -  RELEASE  -
|  1> ! EnGrad PBE0 RIJCOSX D3BJ def2-SVP def2/J
|  2> %output
|  3> xyzfile=True
|  4> end
|  5> %scf
|  6> maxiter 250
|  7> end
|  8> %output
|  9> Print[P_Hirshfeld] = 1
| 10> end
| 11> % maxcore
| 12> 4000
| 13> *xyz 0 2
| 14> O   -2.15463653  -0.82304690   0.97285583
| 15> O   -0.99917391   0.07637810   1.07642396
| 16> C   -0.65809122   0.57291991  -0.24132731
| 17> C    0.53734469   1.40237276   0.13469040
| 18> C    1.60966192   0.51504740   0.21497552
| 19> C    1.26000025  -0.71978296  -0.32499108
| 20> C   -0.08787176  -0.61954824  -0.99670325
| 21> H   -2.19815039  -1.11815454   1.89905657
| 22> H   -1.53172827   1.09144180  -0.66912751
| 23> H    0.48117804   2.42619708   0.51019339
| 24> H    2.58330401   0.73336377   0.65989487
| 25> H    1.85616821  -1.61018232  -0.29520128
| 26> H    0.05363667  -0.44108879  -2.07998286
| 27> H   -0.75138487  -1.48591934  -0.86085607
| 28> *
| 29>
| 30>                          ****END OF INPUT****

CARTESIAN COORDINATES (ANGSTROEM)
---------------------------------
  O     -2.154637   -0.823047    0.972856
  O     -0.999174    0.076378    1.076424
  C     -0.658091    0.572920   -0.241327
  C      0.537345    1.402373    0.134690
  C      1.609662    0.515047    0.214976
  C      1.260000   -0.719783   -0.324991
  C     -0.087872   -0.619548   -0.996703
  H     -2.198150   -1.118155    1.899057
  H     -1.531728    1.091442   -0.669128
  H      0.481178    2.426197    0.510193
  H      2.583304    0.733364    0.659895
  H      1.856168   -1.610182   -0.295201
  H      0.053637   -0.441089   -2.079983
  H     -0.751385   -1.485919   -0.860856

 Total Charge           Charge          ....    0
 Multiplicity           Mult            ....    2
 Number of Electrons    NEL             ....   53
 Basis Dimension        Dim             ....  133

ORBITAL ENERGIES
----------------
                 SPIN UP ORBITALS
  NO   OCC          E(Eh)            E(eV)
   0   1.0000     -19.252350      -523.8831
   1   1.0000     -19.247704      -523.7567
   2   1.0000     -10.287561      -279.9388
   3   1.0000     -10.245351      -278.7902
   4   1.0000     -10.244911      -278.7782
   5   1.0000     -10.238265      -278.5973
   6   1.0000     -10.233614      -278.4708
   7   1.0000      -1.116120       -30.3712
   8   1.0000      -0.937537       -25.5117
   9   1.0000      -0.851063       -23.1586
  10   1.0000      -0.731343       -19.9008
  11   1.0000      -0.706696       -19.2302
  12   1.0000      -0.582065       -15.8388
  13   1.0000      -0.558149       -15.1880
  14   1.0000      -0.541211       -14.7271
  15   1.0000      -0.511370       -13.9151
  16   1.0000      -0.495682       -13.4882
  17   1.0000      -0.445889       -12.1333
  18   1.0000      -0.407104       -11.0779
  19   1.0000      -0.399867       -10.8809
  20   1.0000      -0.391340       -10.6489
  21   1.0000      -0.377534       -10.2732
  22   1.0000      -0.357473        -9.7273
  23   1.0000      -0.343746        -9.3538
  24   1.0000      -0.320031        -8.7085
  25   1.0000      -0.248527        -6.7628
  26   1.0000      -0.203138        -5.5277
  27   0.0000       0.019965         0.5433
  28   0.0000       0.058066         1.5801
  29   0.0000       0.083903         2.2831
  30   0.0000       0.097140         2.6433
  31   0.0000       0.117434         3.1955

                 SPIN DOWN ORBITALS
  NO   OCC          E(Eh)            E(eV)
   0   1.0000     -19.251200      -523.8518
   1   1.0000     -19.247032      -523.7384
   2   1.0000     -10.287988      -279.9504
   3   1.0000     -10.242525      -278.7133
   4   1.0000     -10.235412      -278.5197
   5   1.0000     -10.234554      -278.4964
   6   1.0000     -10.234159      -278.4856
   7   1.0000      -1.113756       -30.3068
   8   1.0000      -0.933046       -25.3895
   9   1.0000      -0.842531       -22.9264
  10   1.0000      -0.725467       -19.7410
  11   1.0000      -0.691970       -18.8295
  12   1.0000      -0.574052       -15.6207
  13   1.0000      -0.554800       -15.0969
  14   1.0000      -0.532501       -14.4901
  15   1.0000      -0.508395       -13.8341
  16   1.0000      -0.491909       -13.3855
  17   1.0000      -0.440791       -11.9945
  18   1.0000      -0.403020       -10.9667
  19   1.0000      -0.395005       -10.7486
  20   1.0000      -0.386998       -10.5308
  21   1.0000      -0.372840       -10.1455
  22   1.0000      -0.355181        -9.6650
  23   1.0000      -0.340637        -9.2692
  24   1.0000      -0.294883        -8.0242
  25   1.0000      -0.246054        -6.6955
  26   0.0000      -0.066466        -1.8086
  27   0.0000       0.033043         0.8991
  28   0.0000       0.071364         1.9419
  29   0.0000       0.088661         2.4126
  30   0.0000       0.101670         2.7666

MULLIKEN ATOMIC CHARGES AND SPIN POPULATIONS
--------------------------------------------
   0 O :   -0.177496    0.021557
   1 O :   -0.282798    0.017941
   2 C :    0.058508   -0.042673
   3 C :   -0.028812    0.695820
   4 C :    0.001028   -0.330597
   5 C :   -0.078393    0.714514
   6 C :    0.052842   -0.055954
   7 H :    0.193680    0.000070
   8 H :    0.040307    0.001763
   9 H :    0.042140   -0.033281
  10 H :    0.029082    0.012135
  11 H :    0.024816   -0.034848
  12 H :    0.061997    0.028353
  13 H :    0.063100    0.005201
Sum of atomic charges         :    0.0000000

LOEWDIN ATOMIC CHARGES AND SPIN POPULATIONS
-------------------------------------------
   0 O :   -0.085757    0.018979
   1 O :   -0.113120    0.026003
   2 C :    0.058613    0.002656
   3 C :   -0.031338    0.544104
   4 C :   -0.035056   -0.180159
   5 C :    0.002897    0.566205
   6 C :   -0.054086   -0.007140
   7 H :    0.079670    0.000838
   8 H :    0.018362    0.001442
   9 H :    0.028549   -0.001305
  10 H :    0.033012    0.001108
  11 H :    0.019816    0.000018
  12 H :    0.041702    0.022370
  13 H :    0.036735    0.004881

  Mayer bond orders larger than 0.100000
B(  0-O ,  1-O ) :   0.9179 B(  0-O ,  7-H ) :   0.9702 B(  1-O ,  2-C ) :   0.8923
B(  2-C ,  3-C ) :   1.0101 B(  2-C ,  6-C ) :   1.0258 B(  2-C ,  8-H ) :   0.9494
B(  3-C ,  4-C ) :   1.3688 B(  3-C ,  9-H ) :   0.9914 B(  4-C ,  5-C ) :   1.4122
B(  4-C , 10-H ) :   0.9921 B(  5-C ,  6-C ) :   0.9948 B(  5-C , 11-H ) :   0.9874
B(  6-C , 12-H ) :   0.9267 B(  6-C , 13-H ) :   0.9311

Dispersion correction           -0.010127048
FINAL SINGLE POINT ENERGY      -344.384455434534
Dispersion correction            ... done

DIPOLE MOMENT
-------------
                                X             Y             Z
Electronic contribution:     -1.39817       0.37411       1.97108
Nuclear contribution   :      1.61394      -0.48831      -1.91020
                        -----------------------------------------
Total Dipole Moment    :      0.21577      -0.11420       0.06088
                        -----------------------------------------
Magnitude (a.u.)       :      0.25160
Magnitude (Debye)      :      0.63952

Rotational constants in cm-1:     0.173447     0.076297     0.066443
Rotational constants in MHz :  5199.800739  2287.330240  1991.909124

                             ****ORCA TERMINATED NORMALLY****
TOTAL RUN TIME: 0 days 0 hours 1 minutes 1 seconds 728 msec
