                         Program Version 5.0.4 -  RELEASE  -
|  1> ! EnGrad PBE0 RIJCOSX D3BJ def2-SVP def2/J
|  2> %output
|  3> xyzfile=True
|  4> end
|  5> %scf
|  6> maxiter 250
|  7> end
|  8> %output
|  9> Print[P_Hirshfeld] = 1
| 10> end
| 11> % maxcore
| 12> 4000
| 13> *xyz 0 2
| 14> O   -2.52389000  -0.68412000   0.77291000
| 15> O   -1.17455000   0.13873000   1.15770000
| 16> C   -0.62414000   0.48840000  -0.08441000
| 17> C    0.56935000   1.31605000   0.30517000
| 18> C    1.72830000   0.57242000   0.11129000
| 19> C    1.43712000  -0.64250000  -0.49415000
| 20> C   -0.02192000  -0.72734000  -0.80949000
| 21> H   -2.70016000  -0.97003000   1.68117000
| 22> H   -1.37781000   1.03302000  -0.68094000
| 23> H    0.49067000   2.30062000   0.76609000
| 24> H    2.73099000   0.90389000   0.38971000
| 25> H    2.16978000  -1.40784000  -0.75648000
| 26> H   -0.19052000  -0.67389000  -1.90068000
| 27> H   -0.51323000  -1.64732000  -0.45786000
| 28> *
| 29>
| 30>                          ****END OF INPUT****

CARTESIAN COORDINATES (ANGSTROEM)
---------------------------------
  O     -2.523890   -0.684120    0.772910
  O     -1.174550    0.138730    1.157700
  C     -0.624140    0.488400   -0.084410
  C      0.569350    1.316050    0.305170
  C      1.728300    0.572420    0.111290
  C      1.437120   -0.642500   -0.494150
  C     -0.021920   -0.727340   -0.809490
  H     -2.700160   -0.970030    1.681170
  H     -1.377810    1.033020   -0.680940
  H      0.490670    2.300620    0.766090
  H      2.730990    0.903890    0.389710
  H      2.169780   -1.407840   -0.756480
  H     -0.190520   -0.673890   -1.900680
  H     -0.513230   -1.647320   -0.457860

 Total Charge           Charge          ....    0
 Multiplicity           Mult            ....    2
 Number of Electrons    NEL             ....   53
 Basis Dimension        Dim             ....  133

ORBITAL ENERGIES
----------------
                 SPIN UP ORBITALS
  NO   OCC          E(Eh)            E(eV)
   0   1.0000     -19.264688      -524.2188
   1   1.0000     -19.252332      -523.8826
   2   1.0000     -10.285726      -279.8888
   3   1.0000     -10.249471      -278.9023
   4   1.0000     -10.248865      -278.8858
   5   1.0000     -10.242221      -278.7050
   6   1.0000     -10.233221      -278.4601
   7   1.0000      -1.079362       -29.3709
   8   1.0000      -0.950081       -25.8530
   9   1.0000      -0.864863       -23.5341
  10   1.0000      -0.733761       -19.9666
  11   1.0000      -0.707373       -19.2486
  12   1.0000      -0.581347       -15.8193
  13   1.0000      -0.560843       -15.2613
  14   1.0000      -0.537696       -14.6315
  15   1.0000      -0.502001       -13.6601
  16   1.0000      -0.485772       -13.2185
  17   1.0000      -0.437537       -11.9060
  18   1.0000      -0.408266       -11.1095
  19   1.0000      -0.405070       -11.0225
  20   1.0000      -0.394138       -10.7250
  21   1.0000      -0.387890       -10.5550
  22   1.0000      -0.352116        -9.5816
  23   1.0000      -0.345123        -9.3913
  24   1.0000      -0.325202        -8.8492
  25   1.0000      -0.267352        -7.2750
  26   1.0000      -0.204270        -5.5585
  27   0.0000      -0.042769        -1.1638
  28   0.0000       0.039919         1.0862
  29   0.0000       0.079913         2.1746
  30   0.0000       0.092524         2.5177
  31   0.0000       0.112615         3.0644

                 SPIN DOWN ORBITALS
  NO   OCC          E(Eh)            E(eV)
   0   1.0000     -19.264131      -524.2037
   1   1.0000     -19.250870      -523.8428
   2   1.0000     -10.286334      -279.9054
   3   1.0000     -10.246267      -278.8151
   4   1.0000     -10.239408      -278.6285
   5   1.0000     -10.239088      -278.6197
   6   1.0000     -10.233856      -278.4774
   7   1.0000      -1.076819       -29.3017
   8   1.0000      -0.946149       -25.7460
   9   1.0000      -0.855476       -23.2787
  10   1.0000      -0.727319       -19.7914
  11   1.0000      -0.693309       -18.8659
  12   1.0000      -0.573768       -15.6130
  13   1.0000      -0.555553       -15.1174
  14   1.0000      -0.531453       -14.4616
  15   1.0000      -0.497628       -13.5411
  16   1.0000      -0.482783       -13.1372
  17   1.0000      -0.432946       -11.7811
  18   1.0000      -0.403478       -10.9792
  19   1.0000      -0.399475       -10.8703
  20   1.0000      -0.387896       -10.5552
  21   1.0000      -0.384910       -10.4739
  22   1.0000      -0.347051        -9.4437
  23   1.0000      -0.340952        -9.2778
  24   1.0000      -0.301753        -8.2111
  25   1.0000      -0.266168        -7.2428
  26   0.0000      -0.075942        -2.0665
  27   0.0000      -0.028309        -0.7703
  28   0.0000       0.062591         1.7032
  29   0.0000       0.083062         2.2602
  30   0.0000       0.094543         2.5726

MULLIKEN ATOMIC CHARGES AND SPIN POPULATIONS
--------------------------------------------
   0 O :   -0.201148    0.051499
   1 O :   -0.266655   -0.004788
   2 C :    0.103558   -0.044421
   3 C :   -0.058921    0.685480
   4 C :    0.004331   -0.315141
   5 C :   -0.103507    0.689419
   6 C :    0.057193   -0.061035
   7 H :    0.191346   -0.001325
   8 H :    0.042392    0.013966
   9 H :    0.044265   -0.033192
  10 H :    0.030864    0.010871
  11 H :    0.037339   -0.034183
  12 H :    0.058048    0.028933
  13 H :    0.060896    0.013917
Sum of atomic charges         :    0.0000000

LOEWDIN ATOMIC CHARGES AND SPIN POPULATIONS
-------------------------------------------
   0 O :   -0.094520    0.045747
   1 O :   -0.090035    0.006384
   2 C :    0.038714    0.001393
   3 C :   -0.023224    0.534647
   4 C :   -0.040716   -0.169450
   5 C :   -0.004279    0.545327
   6 C :   -0.055303   -0.009431
   7 H :    0.072788    0.000503
   8 H :    0.020150    0.012030
   9 H :    0.029283   -0.001466
  10 H :    0.034766    0.000474
  11 H :    0.026101   -0.001598
  12 H :    0.043278    0.023749
  13 H :    0.042998    0.011690

  Mayer bond orders larger than 0.100000
B(  0-O ,  1-O ) :   0.9089 B(  0-O ,  7-H ) :   0.9717 B(  1-O ,  2-C ) :   0.9458
B(  2-C ,  3-C ) :   1.0133 B(  2-C ,  6-C ) :   1.0265 B(  2-C ,  8-H ) :   0.9301
B(  3-C ,  4-C ) :   1.3754 B(  3-C ,  5-C ) :   0.1161 B(  3-C ,  9-H ) :   0.9877
B(  4-C ,  5-C ) :   1.4233 B(  4-C , 10-H ) :   0.9948 B(  5-C ,  6-C ) :   1.0210
B(  5-C , 11-H ) :   0.9846 B(  6-C , 12-H ) :   0.9224 B(  6-C , 13-H ) :   0.9220

Dispersion correction           -0.009955028
FINAL SINGLE POINT ENERGY      -344.383340093268
Dispersion correction            ... done

DIPOLE MOMENT
-------------
                                X             Y             Z
Electronic contribution:     -1.61991       0.52183       2.05708
Nuclear contribution   :      1.94561      -0.63441      -2.08598
                        -----------------------------------------
Total Dipole Moment    :      0.32571      -0.11258      -0.02890
                        -----------------------------------------
Magnitude (a.u.)       :      0.34582
Magnitude (Debye)      :      0.87901

Rotational constants in cm-1:     0.195976     0.067148     0.056034
Rotational constants in MHz :  5875.220052  2013.055818  1679.843651

                             ****ORCA TERMINATED NORMALLY****
TOTAL RUN TIME: 0 days 0 hours 1 minutes 13 seconds 313 msec
