                         Program Version 5.0.4 -  RELEASE  -
|  1> ! EnGrad PBE0 RIJCOSX D3BJ def2-SVP def2/J
|  2> %output
|  3> xyzfile=True
|  4> end
|  5> %scf
|  6> maxiter 250
|  7> end
|  8> %output
|  9> Print[P_Hirshfeld] = 1
| 10> end
| 11> % maxcore
| 12> 4000
| 13> *xyz 0 2
| 14> O   -2.40238929  -0.61206373   0.80861978
| 15> O   -1.29788317   0.06755495   1.12659093
| 16> C   -0.62513178   0.48867782  -0.08489676
| 17> C    0.56865625   1.31694846   0.30328695
| 18> C    1.72782564   0.57173614   0.11225384
| 19> C    1.44146643  -0.64488074  -0.49622070
| 20> C   -0.02240530  -0.72619272  -0.81086031
| 21> H   -2.69573618  -0.97222287   1.68273084
| 22> H   -1.37877607   1.03360751  -0.68113817
| 23> H    0.49084363   2.30177106   0.76380891
| 24> H    2.73001329   0.90256476   0.39167421
| 25> H    2.16765843  -1.40956752  -0.75269741
| 26> H   -0.18877081  -0.67183547  -1.90200926
| 27> H   -0.51529431  -1.64626142  -0.46112026
| 28> *
| 29>
| 30>                          ****END OF INPUT****

CARTESIAN COORDINATES (ANGSTROEM)
---------------------------------
  O     -2.402389   -0.612064    0.808620
  O     -1.297883    0.067555    1.126591
  C     -0.625132    0.488678   -0.084897
  C      0.568656    1.316948    0.303287
  C      1.727826    0.571736    0.112254
  C      1.441466   -0.644881   -0.496221
  C     -0.022405   -0.726193   -0.810860
  H     -2.695736   -0.972223    1.682731
  H     -1.378776    1.033608   -0.681138
  H      0.490844    2.301771    0.763809
  H      2.730013    0.902565    0.391674
  H      2.167658   -1.409568   -0.752697
  H     -0.188771   -0.671835   -1.902009
  H     -0.515294   -1.646261   -0.461120

 Total Charge           Charge          ....    0
 Multiplicity           Mult            ....    2
 Number of Electrons    NEL             ....   53
 Basis Dimension        Dim             ....  133

ORBITAL ENERGIES
----------------
                 SPIN UP ORBITALS
  NO   OCC          E(Eh)            E(eV)
   0   1.0000     -19.248301      -523.7729
   1   1.0000     -19.243704      -523.6478
   2   1.0000     -10.284584      -279.8578
   3   1.0000     -10.245062      -278.7823
   4   1.0000     -10.243074      -278.7282
   5   1.0000     -10.238621      -278.6070
   6   1.0000     -10.232238      -278.4333
   7   1.0000      -1.176195       -32.0059
   8   1.0000      -0.916400       -24.9365
   9   1.0000      -0.851622       -23.1738
  10   1.0000      -0.729709       -19.8564
  11   1.0000      -0.708324       -19.2745
  12   1.0000      -0.587449       -15.9853
  13   1.0000      -0.563888       -15.3442
  14   1.0000      -0.542548       -14.7635
  15   1.0000      -0.530589       -14.4381
  16   1.0000      -0.499053       -13.5799
  17   1.0000      -0.453906       -12.3514
  18   1.0000      -0.414019       -11.2660
  19   1.0000      -0.403786       -10.9876
  20   1.0000      -0.386917       -10.5286
  21   1.0000      -0.384713       -10.4686
  22   1.0000      -0.362191        -9.8557
  23   1.0000      -0.332089        -9.0366
  24   1.0000      -0.323613        -8.8060
  25   1.0000      -0.227765        -6.1978
  26   1.0000      -0.201085        -5.4718
  27   0.0000       0.030579         0.8321
  28   0.0000       0.069812         1.8997
  29   0.0000       0.086833         2.3629
  30   0.0000       0.111328         3.0294
  31   0.0000       0.125427         3.4130

                 SPIN DOWN ORBITALS
  NO   OCC          E(Eh)            E(eV)
   0   1.0000     -19.248160      -523.7691
   1   1.0000     -19.242548      -523.6163
   2   1.0000     -10.285228      -279.8753
   3   1.0000     -10.242802      -278.7208
   4   1.0000     -10.234800      -278.5031
   5   1.0000     -10.232941      -278.4525
   6   1.0000     -10.232877      -278.4507
   7   1.0000      -1.174782       -31.9674
   8   1.0000      -0.911888       -24.8137
   9   1.0000      -0.843517       -22.9533
  10   1.0000      -0.723689       -19.6926
  11   1.0000      -0.694118       -18.8879
  12   1.0000      -0.579012       -15.7557
  13   1.0000      -0.560795       -15.2600
  14   1.0000      -0.535451       -14.5704
  15   1.0000      -0.526783       -14.3345
  16   1.0000      -0.495536       -13.4842
  17   1.0000      -0.451006       -12.2725
  18   1.0000      -0.404798       -11.0151
  19   1.0000      -0.398453       -10.8424
  20   1.0000      -0.384791       -10.4707
  21   1.0000      -0.378917       -10.3109
  22   1.0000      -0.360053        -9.7975
  23   1.0000      -0.328600        -8.9417
  24   1.0000      -0.298181        -8.1139
  25   1.0000      -0.226798        -6.1715
  26   0.0000      -0.062799        -1.7088
  27   0.0000       0.049937         1.3589
  28   0.0000       0.071178         1.9369
  29   0.0000       0.090004         2.4491
  30   0.0000       0.115432         3.1411

MULLIKEN ATOMIC CHARGES AND SPIN POPULATIONS
--------------------------------------------
   0 O :   -0.158415    0.005177
   1 O :   -0.295762    0.019261
   2 C :    0.119758   -0.045359
   3 C :   -0.051871    0.706615
   4 C :   -0.003547   -0.326700
   5 C :   -0.097483    0.705944
   6 C :    0.034282   -0.061970
   7 H :    0.201096    0.000228
   8 H :    0.034842    0.012883
   9 H :    0.038714   -0.034135
  10 H :    0.029124    0.011356
  11 H :    0.032767   -0.034825
  12 H :    0.058077    0.027745
  13 H :    0.058416    0.013780
Sum of atomic charges         :    0.0000000

LOEWDIN ATOMIC CHARGES AND SPIN POPULATIONS
-------------------------------------------
   0 O :   -0.075199    0.003955
   1 O :   -0.124073    0.026080
   2 C :    0.056745    0.000851
   3 C :   -0.028977    0.553083
   4 C :   -0.040506   -0.175969
   5 C :   -0.010017    0.557523
   6 C :   -0.056024   -0.009740
   7 H :    0.093721    0.000448
   8 H :    0.016800    0.011482
   9 H :    0.027557   -0.001629
  10 H :    0.033606    0.000525
  11 H :    0.023737   -0.001042
  12 H :    0.042212    0.022847
  13 H :    0.040416    0.011585

  Mayer bond orders larger than 0.100000
B(  0-O ,  1-O ) :   0.9120 B(  0-O ,  7-H ) :   0.9620 B(  1-O ,  2-C ) :   0.9059
B(  2-C ,  3-C ) :   1.0336 B(  2-C ,  6-C ) :   1.0312 B(  2-C ,  8-H ) :   0.9321
B(  3-C ,  4-C ) :   1.3893 B(  3-C ,  5-C ) :   0.1207 B(  3-C ,  9-H ) :   0.9878
B(  4-C ,  5-C ) :   1.4158 B(  4-C , 10-H ) :   0.9948 B(  5-C ,  6-C ) :   1.0236
B(  5-C , 11-H ) :   0.9875 B(  6-C , 12-H ) :   0.9230 B(  6-C , 13-H ) :   0.9252

Dispersion correction           -0.009923358
FINAL SINGLE POINT ENERGY      -344.388078730294
Dispersion correction            ... done

DIPOLE MOMENT
-------------
                                X             Y             Z
Electronic contribution:     -1.80486       0.44129       2.12424
Nuclear contribution   :      1.94637      -0.63508      -2.08673
                        -----------------------------------------
Total Dipole Moment    :      0.14151      -0.19379       0.03750
                        -----------------------------------------
Magnitude (a.u.)       :      0.24287
Magnitude (Debye)      :      0.61733

Rotational constants in cm-1:     0.201275     0.068351     0.057226
Rotational constants in MHz :  6034.070587  2049.097383  1715.595035

                             ****ORCA TERMINATED NORMALLY****
TOTAL RUN TIME: 0 days 0 hours 1 minutes 2 seconds 178 msec
