                         Program Version 5.0.4 -  RELEASE  -
|  1> ! EnGrad PBE0 RIJCOSX D3BJ def2-SVP def2/J
|  2> %output
|  3> xyzfile=True
|  4> end
|  5> %scf
|  6> maxiter 250
|  7> end
|  8> %output
|  9> Print[P_Hirshfeld] = 1
| 10> end
| 11> % maxcore
| 12> 4000
| 13> *xyz 0 2
| 14> O   -2.42460253  -0.62635481   0.80644143
| 15> O   -1.27408733   0.08286101   1.13241564
| 16> C   -0.62865321   0.48611907  -0.08213458
| 17> C    0.56701883   1.31533961   0.30463224
| 18> C    1.72753746   0.57183805   0.11181702
| 19> C    1.44032586  -0.64378756  -0.49598999
| 20> C   -0.02178006  -0.72619678  -0.81082838
| 21> H   -2.69298806  -0.96918835   1.67628543
| 22> H   -1.37845292   1.03362068  -0.68174298
| 23> H    0.49096147   2.30171877   0.76399708
| 24> H    2.73017254   0.90279026   0.39147377
| 25> H    2.16872004  -1.41032013  -0.75332013
| 26> H   -0.18899813  -0.67205809  -1.90194458
| 27> H   -0.51508664  -1.64652186  -0.46106007
| 28> *
| 29>
| 30>                          ****END OF INPUT****

CARTESIAN COORDINATES (ANGSTROEM)
---------------------------------
  O     -2.424603   -0.626355    0.806441
  O     -1.274087    0.082861    1.132416
  C     -0.628653    0.486119   -0.082135
  C      0.567019    1.315340    0.304632
  C      1.727537    0.571838    0.111817
  C      1.440326   -0.643788   -0.495990
  C     -0.021780   -0.726197   -0.810828
  H     -2.692988   -0.969188    1.676285
  H     -1.378453    1.033621   -0.681743
  H      0.490961    2.301719    0.763997
  H      2.730173    0.902790    0.391474
  H      2.168720   -1.410320   -0.753320
  H     -0.188998   -0.672058   -1.901945
  H     -0.515087   -1.646522   -0.461060

 Total Charge           Charge          ....    0
 Multiplicity           Mult            ....    2
 Number of Electrons    NEL             ....   53
 Basis Dimension        Dim             ....  133

ORBITAL ENERGIES
----------------
                 SPIN UP ORBITALS
  NO   OCC          E(Eh)            E(eV)
   0   1.0000     -19.250341      -523.8284
   1   1.0000     -19.249786      -523.8133
   2   1.0000     -10.284914      -279.8667
   3   1.0000     -10.245322      -278.7894
   4   1.0000     -10.243577      -278.7419
   5   1.0000     -10.238788      -278.6116
   6   1.0000     -10.232216      -278.4328
   7   1.0000      -1.152624       -31.3645
   8   1.0000      -0.926058       -25.1993
   9   1.0000      -0.856259       -23.3000
  10   1.0000      -0.729938       -19.8626
  11   1.0000      -0.708067       -19.2675
  12   1.0000      -0.585663       -15.9367
  13   1.0000      -0.562920       -15.3178
  14   1.0000      -0.540003       -14.6942
  15   1.0000      -0.528198       -14.3730
  16   1.0000      -0.496756       -13.5174
  17   1.0000      -0.449419       -12.2293
  18   1.0000      -0.410865       -11.1802
  19   1.0000      -0.403674       -10.9845
  20   1.0000      -0.387861       -10.5542
  21   1.0000      -0.385400       -10.4873
  22   1.0000      -0.359840        -9.7917
  23   1.0000      -0.339471        -9.2375
  24   1.0000      -0.324502        -8.8302
  25   1.0000      -0.239326        -6.5124
  26   1.0000      -0.201235        -5.4759
  27   0.0000       0.028654         0.7797
  28   0.0000       0.070571         1.9203
  29   0.0000       0.085826         2.3355
  30   0.0000       0.108291         2.9467
  31   0.0000       0.122054         3.3213

                 SPIN DOWN ORBITALS
  NO   OCC          E(Eh)            E(eV)
   0   1.0000     -19.250129      -523.8226
   1   1.0000     -19.248699      -523.7837
   2   1.0000     -10.285549      -279.8840
   3   1.0000     -10.242963      -278.7252
   4   1.0000     -10.235086      -278.5109
   5   1.0000     -10.233423      -278.4656
   6   1.0000     -10.232857      -278.4502
   7   1.0000      -1.151128       -31.3238
   8   1.0000      -0.922259       -25.0959
   9   1.0000      -0.847525       -23.0623
  10   1.0000      -0.723899       -19.6983
  11   1.0000      -0.693753       -18.8780
  12   1.0000      -0.577265       -15.7082
  13   1.0000      -0.559518       -15.2253
  14   1.0000      -0.531934       -14.4747
  15   1.0000      -0.525616       -14.3027
  16   1.0000      -0.493200       -13.4207
  17   1.0000      -0.446128       -12.1398
  18   1.0000      -0.402068       -10.9408
  19   1.0000      -0.398380       -10.8405
  20   1.0000      -0.385232       -10.4827
  21   1.0000      -0.380291       -10.3483
  22   1.0000      -0.357755        -9.7350
  23   1.0000      -0.336599        -9.1593
  24   1.0000      -0.298445        -8.1211
  25   1.0000      -0.238369        -6.4864
  26   0.0000      -0.063159        -1.7186
  27   0.0000       0.046173         1.2564
  28   0.0000       0.073070         1.9883
  29   0.0000       0.089758         2.4424
  30   0.0000       0.114122         3.1054

MULLIKEN ATOMIC CHARGES AND SPIN POPULATIONS
--------------------------------------------
   0 O :   -0.159185    0.007645
   1 O :   -0.287727    0.016680
   2 C :    0.117481   -0.045314
   3 C :   -0.054930    0.708351
   4 C :   -0.002253   -0.326072
   5 C :   -0.099892    0.703748
   6 C :    0.037720   -0.061863
   7 H :    0.192979   -0.000061
   8 H :    0.036346    0.012768
   9 H :    0.039604   -0.034267
  10 H :    0.029421    0.011346
  11 H :    0.034090   -0.034842
  12 H :    0.057996    0.027992
  13 H :    0.058349    0.013888
Sum of atomic charges         :    0.0000000

LOEWDIN ATOMIC CHARGES AND SPIN POPULATIONS
-------------------------------------------
   0 O :   -0.069966    0.006056
   1 O :   -0.113143    0.023976
   2 C :    0.051372    0.000970
   3 C :   -0.028916    0.554414
   4 C :   -0.041085   -0.175613
   5 C :   -0.010620    0.555871
   6 C :   -0.056192   -0.009667
   7 H :    0.082028    0.000322
   8 H :    0.017469    0.011400
   9 H :    0.027643   -0.001669
  10 H :    0.033869    0.000541
  11 H :    0.024481   -0.001302
  12 H :    0.042349    0.023033
  13 H :    0.040712    0.011667

  Mayer bond orders larger than 0.100000
B(  0-O ,  1-O ) :   0.9212 B(  0-O ,  7-H ) :   0.9694 B(  1-O ,  2-C ) :   0.9146
B(  2-C ,  3-C ) :   1.0296 B(  2-C ,  6-C ) :   1.0304 B(  2-C ,  8-H ) :   0.9319
B(  3-C ,  4-C ) :   1.3872 B(  3-C ,  5-C ) :   0.1210 B(  3-C ,  9-H ) :   0.9875
B(  4-C ,  5-C ) :   1.4177 B(  4-C , 10-H ) :   0.9948 B(  5-C ,  6-C ) :   1.0232
B(  5-C , 11-H ) :   0.9866 B(  6-C , 12-H ) :   0.9231 B(  6-C , 13-H ) :   0.9249

Dispersion correction           -0.009921575
FINAL SINGLE POINT ENERGY      -344.394203259926
Dispersion correction            ... done

DIPOLE MOMENT
-------------
                                X             Y             Z
Electronic contribution:     -1.79770       0.44798       2.13002
Nuclear contribution   :      1.95330      -0.63204      -2.10029
                        -----------------------------------------
Total Dipole Moment    :      0.15559      -0.18406       0.02973
                        -----------------------------------------
Magnitude (a.u.)       :      0.24284
Magnitude (Debye)      :      0.61725

Rotational constants in cm-1:     0.200475     0.068167     0.057030
Rotational constants in MHz :  6010.086905  2043.581699  1709.714240

                             ****ORCA TERMINATED NORMALLY****
TOTAL RUN TIME: 0 days 0 hours 0 minutes 54 seconds 108 msec
