   * xtb version 6.6.1 (8d0f1dd) compiled by 'conda@1efc2f54142f' on 2023-08-01
          program call               : /gpfs/fs1/home/copan/code/autode-practice/.pixi/envs/default/bin/xtb TS_5ZPuRE_ll_ad_2-3_4-5_conf299_opt_xtb.xyz --chrg 0 --uhf 0 --opt --input xcontrol_TS_5ZPuRE_ll_ad_2-3_4-5_conf299_opt_xtb

   ID    Z sym.   atoms
    1    6 C      1-6
    2    1 H      7-16
constraining bond 3 4 to    2.2987000 Å, actual value:    2.2987021 Å
constraining bond 5 6 to    2.3000000 Å, actual value:    2.3000132 Å

          :  Hamiltonian                  GFN2-xTB          :
 * total energy  :   -17.6291912 Eh     change       -0.1489582E-09 Eh
 * total energy  :   -17.7093724 Eh     change       -0.8018119E-01 Eh
 * total energy  :   -17.7494284 Eh     change       -0.4005605E-01 Eh
 * total energy  :   -17.7679616 Eh     change       -0.1853322E-01 Eh
 * total energy  :   -17.7780507 Eh     change       -0.1008906E-01 Eh
 * total energy  :   -17.7844255 Eh     change       -0.6374795E-02 Eh
 * total energy  :   -17.7889252 Eh     change       -0.4499700E-02 Eh
 * total energy  :   -17.7920394 Eh     change       -0.3114265E-02 Eh
 * total energy  :   -17.7915696 Eh     change        0.4698812E-03 Eh
 * total energy  :   -17.7948017 Eh     change       -0.3232088E-02 Eh
 * total energy  :   -17.7970730 Eh     change        0.9824465E-04 Eh
 * total energy  :   -17.7973737 Eh     change       -0.3007033E-03 Eh
 * total energy  :   -17.7974374 Eh     change       -0.6375061E-04 Eh
 * total energy  :   -17.7975982 Eh     change       -0.1608247E-03 Eh
 * total energy  :   -17.7975620 Eh     change        0.3628267E-04 Eh
 * total energy  :   -17.7977993 Eh     change       -0.2373268E-03 Eh
 * total energy  :   -17.7978319 Eh     change       -0.3257835E-04 Eh
 * total energy  :   -17.7978426 Eh     change       -0.1075417E-04 Eh
 * total energy  :   -17.7978475 Eh     change       -0.4903644E-05 Eh
   *** GEOMETRY OPTIMIZATION CONVERGED AFTER 25 ITERATIONS ***

 final structure:
================
16
 xtb: 6.6.1 (8d0f1dd)
C            0.51115231555282        1.46812450770163       -0.36503598769935
C           -0.90677581208191        1.33069959854931       -0.21920693130629
C           -1.57380439219701        0.70084987307027       -1.19869201850438
C           -0.58799419582395       -1.32568914334229       -0.73712654143628
C            0.67036271389956       -1.25074322770445       -0.26009525153530
C            1.29082500954706        0.82479158357001        0.51771001401267
H            0.89478937488883        1.73398742154905       -1.34086191500562
H           -1.31733165620254        1.37435628358326        0.78047876118306
H           -2.61215111199308        0.43075461945239       -1.09826713716271
H           -1.18379112890512        0.69715023895550       -2.20318778332746
H           -1.40755424725453       -1.55921370533062       -0.07916518045977
H           -0.77160020379455       -1.43416034068239       -1.79032265654313
H            1.50920341961958       -1.23397835511423       -0.93483323456925
H            0.88371449350414       -1.48332172699889        0.76698967123398
H            2.35921693666466        0.75880873879785        0.39297384687011
H            0.92032848457836        0.60186363394337        1.50468234425003

          :  Hamiltonian                  GFN2-xTB          :
         :: total energy             -17.797847523726 Eh    ::
         :: gradient norm              0.000473552792 Eh/a0 ::
         :: HOMO-LUMO gap              3.915215657543 eV    ::
         :: SCC energy               -18.143676659828 Eh    ::
         :: -> dispersion             -0.011168513081 Eh    ::
         :: repulsion energy           0.345761621067 Eh    ::

    * Orbital Energies and Occupations

         #    Occupation            Energy/Eh            Energy/eV
      -------------------------------------------------------------
         1        2.0000           -0.6250015             -17.0072
       ...           ...                  ...                  ...
         5        2.0000           -0.5472831             -14.8923
         6        2.0000           -0.5386706             -14.6580
         7        2.0000           -0.5012140             -13.6387
         8        2.0000           -0.4976377             -13.5414
         9        2.0000           -0.4963086             -13.5052
        10        2.0000           -0.4733034             -12.8792
        11        2.0000           -0.4632444             -12.6055
        12        2.0000           -0.4492175             -12.2238
        13        2.0000           -0.4384744             -11.9315
        14        2.0000           -0.4303955             -11.7117
        15        2.0000           -0.4195908             -11.4176
        16        2.0000           -0.3884690             -10.5708
        17        2.0000           -0.3685071             -10.0276 (HOMO)
        18                         -0.2246256              -6.1124 (LUMO)
        19                         -0.2082132              -5.6658
        20                         -0.1496067              -4.0710
        21                          0.1136494               3.0926
        22                          0.1481430               4.0312
        23                          0.1614614               4.3936
        24                          0.1663989               4.5279
        25                          0.1804219               4.9095
        26                          0.2066140               5.6223
        27                          0.2229076               6.0656
        28                          0.2230473               6.0694
       ...                                ...                  ...
        34                          0.6010606              16.3557
      -------------------------------------------------------------
                  HL-Gap            0.1438815 Eh            3.9152 eV

     #   Z          covCN         q      C6AA      α(0)
     1   6 C        2.909    -0.031    28.784     8.797
     2   6 C        2.909    -0.031    28.785     8.798
     3   6 C        2.910    -0.071    29.768     8.947
     4   6 C        2.887    -0.086    30.149     9.002
     5   6 C        2.886    -0.086    30.150     9.002
     6   6 C        2.910    -0.071    29.768     8.946
     7   1 H        0.925     0.036     2.501     2.473
     8   1 H        0.925     0.036     2.501     2.473
     9   1 H        0.926     0.039     2.462     2.454
    10   1 H        0.926     0.043     2.407     2.426
    11   1 H        0.926     0.031     2.576     2.510
    12   1 H        0.926     0.039     2.456     2.451
    13   1 H        0.926     0.031     2.576     2.510
    14   1 H        0.926     0.039     2.456     2.451
    15   1 H        0.926     0.039     2.463     2.454
    16   1 H        0.926     0.043     2.408     2.427

Wiberg/Mayer (AO) data.
largest (>0.10) Wiberg bond orders for each atom

     #   Z sym  total        # sym  WBO       # sym  WBO       # sym  WBO
 ---------------------------------------------------------------------------
     1   6 C    3.985 --     6 C    1.745     2 C    1.171     7 H    0.962
     2   6 C    3.985 --     3 C    1.745     1 C    1.171     8 H    0.962
     3   6 C    3.991 --     2 C    1.745     9 H    0.978    10 H    0.974
                             4 C    0.162     6 C    0.102
     4   6 C    3.993 --     5 C    1.804    11 H    0.979    12 H    0.968
                             3 C    0.162
     5   6 C    3.993 --     4 C    1.804    13 H    0.979    14 H    0.968
                             6 C    0.161
     6   6 C    3.991 --     1 C    1.745    15 H    0.978    16 H    0.974
                             5 C    0.161     3 C    0.102
     7   1 H    0.999 --     1 C    0.962
     8   1 H    0.999 --     2 C    0.962
     9   1 H    0.998 --     3 C    0.978
    10   1 H    0.998 --     3 C    0.974
    11   1 H    0.999 --     4 C    0.979
    12   1 H    0.998 --     4 C    0.968
    13   1 H    0.999 --     5 C    0.979
    14   1 H    0.998 --     5 C    0.968
    15   1 H    0.998 --     6 C    0.978
    16   1 H    0.998 --     6 C    0.974
 ---------------------------------------------------------------------------

molecular dipole:
                 x           y           z       tot (Debye)
 q only:       -0.007       0.073       0.006
   full:        0.000      -0.006      -0.000       0.015

           -------------------------------------------------
          | TOTAL ENERGY              -17.797847523726 Eh   |
          | GRADIENT NORM               0.000473552792 Eh/α |
          | HOMO-LUMO GAP               3.915215657543 eV   |
           -------------------------------------------------

 * finished run on 2025/05/23 at 11:25:06.423
