                         Program Version 5.0.4 -  RELEASE  -
|  1> ! LooseOpt PBE0 RIJCOSX D3BJ def2-SVP def2/J
|  2> %geom Constraints
|  3> { B 2 3 2.2986938436629267 C }
|  4> { B 4 5 2.300001533616262 C }
|  5>     end
|  6> end
|  7> %geom MaxIter 10 end
|  8> %output
|  9> xyzfile=True
| 10> end
| 11> %scf
| 12> maxiter 250
| 13> end
| 14> %output
| 15> Print[P_Hirshfeld] = 1
| 16> end
| 17> % maxcore
| 18> 4000
| 19> %pal nprocs 8
| 20> end
| 21> *xyz 0 1
| 22> C    0.51115232   1.46812451  -0.36503599
| 23> C   -0.90677581   1.33069960  -0.21920693
| 24> C   -1.57380439   0.70084987  -1.19869202
| 25> C   -0.58799420  -1.32568914  -0.73712654
| 26> C    0.67036271  -1.25074323  -0.26009525
| 27> C    1.29082501   0.82479158   0.51771001
| 28> H    0.89478937   1.73398742  -1.34086192
| 29> H   -1.31733166   1.37435628   0.78047876
| 30> H   -2.61215111   0.43075462  -1.09826714
| 31> H   -1.18379113   0.69715024  -2.20318778
| 32> H   -1.40755425  -1.55921371  -0.07916518
| 33> H   -0.77160020  -1.43416034  -1.79032266
| 34> H    1.50920342  -1.23397836  -0.93483323
| 35> H    0.88371449  -1.48332173   0.76698967
| 36> H    2.35921694   0.75880874   0.39297385
| 37> H    0.92032848   0.60186363   1.50468234
| 38> *
| 39>
| 40>                          ****END OF INPUT****
 Total Charge           Charge          ....    0
 Multiplicity           Mult            ....    1
 Number of Electrons    NEL             ....   46
Dispersion correction           -0.013240196
FINAL SINGLE POINT ENERGY      -234.066961964284
Dispersion correction            ... done
Dispersion correction           -0.013179647
FINAL SINGLE POINT ENERGY      -234.069506703965
Dispersion correction            ... done
Dispersion correction           -0.013162409
FINAL SINGLE POINT ENERGY      -234.069814078734
Dispersion correction            ... done
Dispersion correction           -0.013147982
FINAL SINGLE POINT ENERGY      -234.070003582051
Dispersion correction            ... done
Dispersion correction           -0.013146754
FINAL SINGLE POINT ENERGY      -234.070039802596
Dispersion correction            ... done
                    ***********************HURRAY********************

CARTESIAN COORDINATES (ANGSTROEM)
---------------------------------
  C      0.502198    1.521541   -0.359178
  C     -0.908402    1.384933   -0.215228
  C     -1.566478    0.710174   -1.193753
  C     -0.597697   -1.324282   -0.739391
  C      0.679040   -1.247979   -0.257191
  C      1.282970    0.833121    0.513717
  H      0.902278    1.755021   -1.353297
  H     -1.331211    1.392737    0.796649
  H     -2.609915    0.402912   -1.085822
  H     -1.162105    0.693438   -2.209631
  H     -1.423679   -1.589648   -0.076375
  H     -0.778248   -1.457025   -1.806842
  H      1.530072   -1.260371   -0.941253
  H      0.894448   -1.507019    0.780250
  H      2.362442    0.734308    0.372947
  H      0.902877    0.592419    1.510439

 Multiplicity           Mult            ....    1
 Number of Electrons    NEL             ....   46
 Basis Dimension        Dim             ....  134

ORBITAL ENERGIES
----------------

  NO   OCC          E(Eh)            E(eV)
   0   2.0000     -10.243557      -278.7413
   1   2.0000     -10.243539      -278.7409
   2   2.0000     -10.231692      -278.4185
   3   2.0000     -10.231313      -278.4082
   4   2.0000     -10.225717      -278.2559
   5   2.0000     -10.225138      -278.2402
   6   2.0000      -0.833606       -22.6836
   7   2.0000      -0.755989       -20.5715
   8   2.0000      -0.743656       -20.2359
   9   2.0000      -0.615637       -16.7523
  10   2.0000      -0.586627       -15.9629
  11   2.0000      -0.558771       -15.2049
  12   2.0000      -0.474573       -12.9138
  13   2.0000      -0.471803       -12.8384
  14   2.0000      -0.467623       -12.7247
  15   2.0000      -0.427069       -11.6211
  16   2.0000      -0.408122       -11.1056
  17   2.0000      -0.391574       -10.6553
  18   2.0000      -0.365613        -9.9488
  19   2.0000      -0.348476        -9.4825
  20   2.0000      -0.346286        -9.4229
  21   2.0000      -0.251359        -6.8398
  22   2.0000      -0.224097        -6.0980
  23   0.0000      -0.003051        -0.0830
  24   0.0000       0.007418         0.2019
  25   0.0000       0.073676         2.0048
  26   0.0000       0.077607         2.1118
  27   0.0000       0.086017         2.3406

MULLIKEN ATOMIC CHARGES
-----------------------
   0 C :   -0.055450
   1 C :   -0.055403
   2 C :   -0.081489
   3 C :   -0.114034
   4 C :   -0.114380
   5 C :   -0.081334
   6 H :    0.033392
   7 H :    0.033340
   8 H :    0.057229
   9 H :    0.057958
  10 H :    0.050021
  11 H :    0.052545
  12 H :    0.050103
  13 H :    0.052348
  14 H :    0.057289
  15 H :    0.057864
Sum of atomic charges:    0.0000000

LOEWDIN ATOMIC CHARGES
----------------------
   0 C :   -0.050880
   1 C :   -0.050873
   2 C :   -0.020870
   3 C :   -0.075003
   4 C :   -0.075031
   5 C :   -0.020947
   6 H :    0.030227
   7 H :    0.030213
   8 H :    0.029731
   9 H :    0.030920
  10 H :    0.025576
  11 H :    0.030393
  12 H :    0.025556
  13 H :    0.030347
  14 H :    0.029759
  15 H :    0.030882

  Mayer bond orders larger than 0.100000
B(  0-C ,  1-C ) :   1.2295 B(  0-C ,  5-C ) :   1.7081 B(  0-C ,  6-H ) :   0.9581
B(  1-C ,  2-C ) :   1.7071 B(  1-C ,  7-H ) :   0.9584 B(  2-C ,  3-C ) :   0.2730
B(  2-C ,  8-H ) :   0.9530 B(  2-C ,  9-H ) :   0.9542 B(  3-C ,  4-C ) :   1.7935
B(  3-C , 10-H ) :   0.9554 B(  3-C , 11-H ) :   0.9482 B(  4-C ,  5-C ) :   0.2725
B(  4-C , 12-H ) :   0.9555 B(  4-C , 13-H ) :   0.9482 B(  5-C , 14-H ) :   0.9529
B(  5-C , 15-H ) :   0.9541

Dispersion correction           -0.013147335
FINAL SINGLE POINT ENERGY      -234.070061984927

DIPOLE MOMENT
-------------
                                X             Y             Z
Electronic contribution:     -0.23502       2.62951       0.20357
Nuclear contribution   :      0.24766      -2.77567      -0.21500
                        -----------------------------------------
Total Dipole Moment    :      0.01264      -0.14617      -0.01143
                        -----------------------------------------
Magnitude (a.u.)       :      0.14716
Magnitude (Debye)      :      0.37405

Rotational constants in cm-1:     0.132728     0.129184     0.074232
Rotational constants in MHz :  3979.098214  3872.851129  2225.427543

                             ****ORCA TERMINATED NORMALLY****
TOTAL RUN TIME: 0 days 0 hours 0 minutes 51 seconds 240 msec
