                         Program Version 5.0.4 -  RELEASE  -
|  1> ! SP PBE0 RIJCOSX D3BJ def2-TZVP def2/J
|  2> %output
|  3> xyzfile=True
|  4> end
|  5> %scf
|  6> maxiter 250
|  7> end
|  8> %output
|  9> Print[P_Hirshfeld] = 1
| 10> end
| 11> % maxcore
| 12> 4000
| 13> %pal nprocs 8
| 14> end
| 15> *xyz 0 1
| 16> C    1.15162510   0.49915833   0.14591623
| 17> C    0.40016325  -0.45664975   1.10847243
| 18> C   -0.98053986  -0.34700073   0.44334411
| 19> C   -0.68336160  -0.52145810  -1.05253964
| 20> C   -0.04664056   0.84279699  -0.75241917
| 21> O   -1.09620332   1.07540019   0.21402207
| 22> H    1.53849983   1.39597140   0.64951634
| 23> H    1.97717547   0.02193805  -0.40283766
| 24> H    0.79406398  -1.48388087   1.11593264
| 25> H    0.37097115  -0.08534792   2.14234558
| 26> H   -1.84755727  -0.79904344   0.94471820
| 27> H   -1.59089243  -0.42126198  -1.66164673
| 28> H   -0.05211279  -1.35771650  -1.39141438
| 29> H    0.06480903   1.63709430  -1.50351003
| 30> *
| 31>
| 32>                          ****END OF INPUT****

CARTESIAN COORDINATES (ANGSTROEM)
---------------------------------
  C      1.151625    0.499158    0.145916
  C      0.400163   -0.456650    1.108472
  C     -0.980540   -0.347001    0.443344
  C     -0.683362   -0.521458   -1.052540
  C     -0.046641    0.842797   -0.752419
  O     -1.096203    1.075400    0.214022
  H      1.538500    1.395971    0.649516
  H      1.977175    0.021938   -0.402838
  H      0.794064   -1.483881    1.115933
  H      0.370971   -0.085348    2.142346
  H     -1.847557   -0.799043    0.944718
  H     -1.590892   -0.421262   -1.661647
  H     -0.052113   -1.357716   -1.391414
  H      0.064809    1.637094   -1.503510

 Total Charge           Charge          ....    0
 Multiplicity           Mult            ....    1
 Number of Electrons    NEL             ....   46
 Basis Dimension        Dim             ....  234

ORBITAL ENERGIES
----------------

  NO   OCC          E(Eh)            E(eV)
   0   2.0000     -19.200835      -522.4813
   1   2.0000     -10.277875      -279.6752
   2   2.0000     -10.277842      -279.6743
   3   2.0000     -10.225612      -278.2531
   4   2.0000     -10.222109      -278.1577
   5   2.0000     -10.221899      -278.1520
   6   2.0000      -1.091422       -29.6991
   7   2.0000      -0.822708       -22.3870
   8   2.0000      -0.737283       -20.0625
   9   2.0000      -0.728746       -19.8302
  10   2.0000      -0.589489       -16.0408
  11   2.0000      -0.564106       -15.3501
  12   2.0000      -0.540961       -14.7203
  13   2.0000      -0.484452       -13.1826
  14   2.0000      -0.473548       -12.8859
  15   2.0000      -0.446776       -12.1574
  16   2.0000      -0.384197       -10.4545
  17   2.0000      -0.366700        -9.9784
  18   2.0000      -0.363170        -9.8823
  19   2.0000      -0.360933        -9.8215
  20   2.0000      -0.336861        -9.1664
  21   2.0000      -0.323501        -8.8029
  22   2.0000      -0.266031        -7.2391
  23   0.0000       0.050653         1.3783
  24   0.0000       0.072438         1.9711
  25   0.0000       0.078113         2.1256
  26   0.0000       0.080292         2.1848
  27   0.0000       0.097066         2.6413

MULLIKEN ATOMIC CHARGES
-----------------------
   0 C :   -0.188092
   1 C :   -0.187864
   2 C :    0.006640
   3 C :   -0.171948
   4 C :    0.006484
   5 O :   -0.296492
   6 H :    0.105760
   7 H :    0.098121
   8 H :    0.098250
   9 H :    0.105616
  10 H :    0.107973
  11 H :    0.105365
  12 H :    0.102306
  13 H :    0.107880
Sum of atomic charges:   -0.0000000

LOEWDIN ATOMIC CHARGES
----------------------
   0 C :   -0.234999
   1 C :   -0.234972
   2 C :   -0.284449
   3 C :   -0.206406
   4 C :   -0.284197
   5 O :    0.177369
   6 H :    0.136051
   7 H :    0.133805
   8 H :    0.133759
   9 H :    0.136131
  10 H :    0.130022
  11 H :    0.139523
  12 H :    0.128351
  13 H :    0.130012

  Mayer bond orders larger than 0.100000
B(  0-C ,  1-C ) :   1.0744 B(  0-C ,  4-C ) :   1.0260 B(  0-C ,  6-H ) :   0.9481
B(  0-C ,  7-H ) :   0.9412 B(  1-C ,  2-C ) :   1.0259 B(  1-C ,  8-H ) :   0.9413
B(  1-C ,  9-H ) :   0.9481 B(  2-C ,  3-C ) :   1.0118 B(  2-C ,  5-O ) :   1.0089
B(  2-C , 10-H ) :   0.9410 B(  3-C ,  4-C ) :   1.0123 B(  3-C , 11-H ) :   0.9495
B(  3-C , 12-H ) :   0.9540 B(  4-C ,  5-O ) :   1.0091 B(  4-C , 13-H ) :   0.9408

Dispersion correction           -0.009616518
FINAL SINGLE POINT ENERGY      -270.313580156980

DIPOLE MOMENT
-------------
                                X             Y             Z
Electronic contribution:     -2.39880       1.93440       0.05134
Nuclear contribution   :      2.78646      -2.46664      -0.27847
                        -----------------------------------------
Total Dipole Moment    :      0.38766      -0.53225      -0.22713
                        -----------------------------------------
Magnitude (a.u.)       :      0.69653
Magnitude (Debye)      :      1.77044

Rotational constants in cm-1:     0.188620     0.154536     0.139535
Rotational constants in MHz :  5654.674606  4632.861614  4183.162621

                             ****ORCA TERMINATED NORMALLY****
TOTAL RUN TIME: 0 days 0 hours 0 minutes 12 seconds 621 msec
