                         Program Version 5.0.4 -  RELEASE  -
|  1> ! SP PBE0 RIJCOSX D3BJ def2-TZVP def2/J
|  2> %output
|  3> xyzfile=True
|  4> end
|  5> %scf
|  6> maxiter 250
|  7> end
|  8> %output
|  9> Print[P_Hirshfeld] = 1
| 10> end
| 11> % maxcore
| 12> 4000
| 13> %pal nprocs 8
| 14> end
| 15> *xyz 0 2
| 16> O    0.48818649   0.00000000   0.00000000
| 17> H   -0.48818649   0.00000000   0.00000000
| 18> *
| 19>
| 20>                          ****END OF INPUT****

CARTESIAN COORDINATES (ANGSTROEM)
---------------------------------
  O      0.488186    0.000000    0.000000
  H     -0.488186    0.000000    0.000000

 Total Charge           Charge          ....    0
 Multiplicity           Mult            ....    2
 Number of Electrons    NEL             ....    9
 Basis Dimension        Dim             ....   37

ORBITAL ENERGIES
----------------
                 SPIN UP ORBITALS
  NO   OCC          E(Eh)            E(eV)
   0   1.0000     -19.276257      -524.5336
   1   1.0000      -1.048802       -28.5394
   2   1.0000      -0.494440       -13.4544
   3   1.0000      -0.439975       -11.9723
   4   1.0000      -0.360696        -9.8150
   5   0.0000       0.036615         0.9964
   6   0.0000       0.382502        10.4084
   7   0.0000       0.402158        10.9433
   8   0.0000       0.422761        11.5039
   9   0.0000       0.433399        11.7934

                 SPIN DOWN ORBITALS
  NO   OCC          E(Eh)            E(eV)
   0   1.0000     -19.249514      -523.8059
   1   1.0000      -0.969912       -26.3926
   2   1.0000      -0.467532       -12.7222
   3   1.0000      -0.333950        -9.0872
   4   0.0000      -0.150733        -4.1017
   5   0.0000       0.044041         1.1984
   6   0.0000       0.391672        10.6579
   7   0.0000       0.435803        11.8588
   8   0.0000       0.442874        12.0512

MULLIKEN ATOMIC CHARGES AND SPIN POPULATIONS
--------------------------------------------
   0 O :   -0.320466    1.025321
   1 H :    0.320466   -0.025321
Sum of atomic charges         :    0.0000000

LOEWDIN ATOMIC CHARGES AND SPIN POPULATIONS
-------------------------------------------
   0 O :   -0.148317    0.997854
   1 H :    0.148317    0.002146

  Mayer bond orders larger than 0.100000
B(  0-O ,  1-H ) :   0.9066

Dispersion correction           -0.000117923
FINAL SINGLE POINT ENERGY       -75.685746721475

DIPOLE MOMENT
-------------
                                X             Y             Z
Electronic contribution:      0.16446      -0.00000      -0.00000
Nuclear contribution   :     -0.86086       0.00000       0.00000
                        -----------------------------------------
Total Dipole Moment    :     -0.69641      -0.00000      -0.00000
                        -----------------------------------------
Magnitude (a.u.)       :      0.69641
Magnitude (Debye)      :      1.77012

Rotational constants in cm-1:     0.000000    18.648321    18.648321
Rotational constants in MHz :     0.000000 559062.600767 559062.600767

                             ****ORCA TERMINATED NORMALLY****
TOTAL RUN TIME: 0 days 0 hours 0 minutes 1 seconds 775 msec
