                         Program Version 5.0.4 -  RELEASE  -
|  1> ! SP PBE0 RIJCOSX D3BJ def2-TZVP def2/J
|  2> %output
|  3> xyzfile=True
|  4> end
|  5> %scf
|  6> maxiter 250
|  7> end
|  8> %output
|  9> Print[P_Hirshfeld] = 1
| 10> end
| 11> % maxcore
| 12> 4000
| 13> %pal nprocs 8
| 14> end
| 15> *xyz 0 2
| 16> O    2.13731319  -1.13718955   1.12596952
| 17> O    1.51767391   0.06137146   0.69663342
| 18> C    0.71182188  -0.22501330  -0.43277741
| 19> C   -0.43355853  -1.17933942  -0.08127999
| 20> C   -1.49094908  -0.27705782   0.46054104
| 21> C   -1.15627863   1.15847430   0.22844545
| 22> C    0.01817439   1.09429516  -0.75762534
| 23> H    3.04722040  -0.99386273   0.82826105
| 24> H    1.35282938  -0.59936800  -1.25246391
| 25> H   -0.09111254  -1.95690888   0.62082015
| 26> H   -0.76796095  -1.71561286  -0.99321242
| 27> H   -2.36196058  -0.62005495   1.02216445
| 28> H   -0.83993573   1.64929063   1.17040306
| 29> H   -2.00459219   1.75238618  -0.15444242
| 30> H    0.71241645   1.94430837  -0.68713112
| 31> H   -0.35080141   1.04448143  -1.79430555
| 32> *
| 33>
| 34>                          ****END OF INPUT****

CARTESIAN COORDINATES (ANGSTROEM)
---------------------------------
  O      2.137313   -1.137190    1.125970
  O      1.517674    0.061371    0.696633
  C      0.711822   -0.225013   -0.432777
  C     -0.433559   -1.179339   -0.081280
  C     -1.490949   -0.277058    0.460541
  C     -1.156279    1.158474    0.228445
  C      0.018174    1.094295   -0.757625
  H      3.047220   -0.993863    0.828261
  H      1.352829   -0.599368   -1.252464
  H     -0.091113   -1.956909    0.620820
  H     -0.767961   -1.715613   -0.993212
  H     -2.361961   -0.620055    1.022164
  H     -0.839936    1.649291    1.170403
  H     -2.004592    1.752386   -0.154442
  H      0.712416    1.944308   -0.687131
  H     -0.350801    1.044481   -1.794306

 Total Charge           Charge          ....    0
 Multiplicity           Mult            ....    2
 Number of Electrons    NEL             ....   55
 Basis Dimension        Dim             ....  271

ORBITAL ENERGIES
----------------
                 SPIN UP ORBITALS
  NO   OCC          E(Eh)            E(eV)
   0   1.0000     -19.260710      -524.1106
   1   1.0000     -19.258116      -524.0400
   2   1.0000     -10.274333      -279.5788
   3   1.0000     -10.224737      -278.2292
   4   1.0000     -10.224371      -278.2193
   5   1.0000     -10.220672      -278.1186
   6   1.0000     -10.218135      -278.0496
   7   1.0000      -1.163945       -31.6726
   8   1.0000      -0.947006       -25.7693
   9   1.0000      -0.850418       -23.1410
  10   1.0000      -0.738685       -20.1006
  11   1.0000      -0.718548       -19.5527
  12   1.0000      -0.595188       -16.1959
  13   1.0000      -0.580150       -15.7867
  14   1.0000      -0.536978       -14.6119
  15   1.0000      -0.523667       -14.2497
  16   1.0000      -0.505993       -13.7688
  17   1.0000      -0.456371       -12.4185
  18   1.0000      -0.442937       -12.0529
  19   1.0000      -0.413835       -11.2610
  20   1.0000      -0.381848       -10.3906
  21   1.0000      -0.373897       -10.1743
  22   1.0000      -0.364173        -9.9097
  23   1.0000      -0.363239        -9.8842
  24   1.0000      -0.350845        -9.5470
  25   1.0000      -0.311443        -8.4748
  26   1.0000      -0.279838        -7.6148
  27   1.0000      -0.195666        -5.3244
  28   0.0000       0.035444         0.9645
  29   0.0000       0.040553         1.1035
  30   0.0000       0.073993         2.0135
  31   0.0000       0.081937         2.2296
  32   0.0000       0.097211         2.6452

                 SPIN DOWN ORBITALS
  NO   OCC          E(Eh)            E(eV)
   0   1.0000     -19.260737      -524.1113
   1   1.0000     -19.258075      -524.0389
   2   1.0000     -10.274225      -279.5759
   3   1.0000     -10.224654      -278.2270
   4   1.0000     -10.221703      -278.1467
   5   1.0000     -10.219165      -278.0776
   6   1.0000     -10.209254      -277.8079
   7   1.0000      -1.163909       -31.6716
   8   1.0000      -0.946446       -25.7541
   9   1.0000      -0.841544       -22.8996
  10   1.0000      -0.735462       -20.0129
  11   1.0000      -0.706482       -19.2244
  12   1.0000      -0.593472       -16.1492
  13   1.0000      -0.565498       -15.3880
  14   1.0000      -0.531795       -14.4709
  15   1.0000      -0.520630       -14.1671
  16   1.0000      -0.502421       -13.6716
  17   1.0000      -0.451200       -12.2778
  18   1.0000      -0.437903       -11.9159
  19   1.0000      -0.404342       -11.0027
  20   1.0000      -0.377146       -10.2627
  21   1.0000      -0.367195        -9.9919
  22   1.0000      -0.360288        -9.8039
  23   1.0000      -0.357541        -9.7292
  24   1.0000      -0.349470        -9.5096
  25   1.0000      -0.311140        -8.4666
  26   1.0000      -0.279394        -7.6027
  27   0.0000      -0.027896        -0.7591
  28   0.0000       0.035746         0.9727
  29   0.0000       0.042071         1.1448
  30   0.0000       0.076334         2.0771
  31   0.0000       0.084787         2.3072

MULLIKEN ATOMIC CHARGES AND SPIN POPULATIONS
--------------------------------------------
   0 O :   -0.321688    0.000294
   1 O :   -0.185048   -0.001059
   2 C :    0.076638    0.011593
   3 C :   -0.163483   -0.092408
   4 C :   -0.234245    1.034766
   5 C :   -0.161136   -0.089103
   6 C :   -0.194891    0.009462
   7 H :    0.322342    0.000391
   8 H :    0.075732   -0.000183
   9 H :    0.134976    0.030252
  10 H :    0.094343    0.058071
  11 H :    0.123031   -0.051436
  12 H :    0.108617    0.059857
  13 H :    0.108901    0.030725
  14 H :    0.112463   -0.000248
  15 H :    0.103447   -0.000974
Sum of atomic charges         :    0.0000000

LOEWDIN ATOMIC CHARGES AND SPIN POPULATIONS
-------------------------------------------
   0 O :   -0.110661    0.001058
   1 O :    0.086786   -0.000391
   2 C :   -0.356284    0.002311
   3 C :   -0.260754    0.064880
   4 C :   -0.132169    0.751997
   5 C :   -0.274997    0.064517
   6 C :   -0.231669    0.001890
   7 H :    0.159704    0.000365
   8 H :    0.128449   -0.000067
   9 H :    0.149361    0.019927
  10 H :    0.146783    0.036542
  11 H :    0.121699   -0.000155
  12 H :    0.148735    0.037419
  13 H :    0.138635    0.020444
  14 H :    0.140052   -0.000246
  15 H :    0.146328   -0.000492

  Mayer bond orders larger than 0.100000
B(  0-O ,  1-O ) :   0.8559 B(  0-O ,  7-H ) :   0.8970 B(  1-O ,  2-C ) :   1.0025
B(  2-C ,  3-C ) :   1.0296 B(  2-C ,  6-C ) :   0.9495 B(  2-C ,  8-H ) :   0.9669
B(  3-C ,  4-C ) :   1.0457 B(  3-C ,  9-H ) :   0.9359 B(  3-C , 10-H ) :   0.9185
B(  4-C ,  5-C ) :   1.0444 B(  4-C , 11-H ) :   0.9640 B(  5-C ,  6-C ) :   1.0546
B(  5-C , 12-H ) :   0.9222 B(  5-C , 13-H ) :   0.9478 B(  6-C , 14-H ) :   0.9537
B(  6-C , 15-H ) :   0.9457

Dispersion correction           -0.011376685
FINAL SINGLE POINT ENERGY      -345.994775846533

DIPOLE MOMENT
-------------
                                X             Y             Z
Electronic contribution:      3.81528      -1.24852       2.24846
Nuclear contribution   :     -3.59295       1.28209      -2.88843
                        -----------------------------------------
Total Dipole Moment    :      0.22233       0.03357      -0.63997
                        -----------------------------------------
Magnitude (a.u.)       :      0.67832
Magnitude (Debye)      :      1.72415

Rotational constants in cm-1:     0.162498     0.070700     0.060941
Rotational constants in MHz :  4871.577815  2119.519958  1826.955509

                             ****ORCA TERMINATED NORMALLY****
TOTAL RUN TIME: 0 days 0 hours 0 minutes 17 seconds 256 msec
