                         Program Version 5.0.4 -  RELEASE  -
|  1> ! SP PBE0 RIJCOSX D3BJ def2-TZVP def2/J
|  2> %geom
|  3> modify_internal
|  4> { B 0 1 A } end
|  5> end
|  6> %geom
|  7> modify_internal
|  8> { B 1 4 A } end
|  9> end
| 10> %output
| 11> xyzfile=True
| 12> end
| 13> %scf
| 14> maxiter 250
| 15> end
| 16> %output
| 17> Print[P_Hirshfeld] = 1
| 18> end
| 19> % maxcore
| 20> 4000
| 21> %pal nprocs 8
| 22> end
| 23> *xyz 0 2
| 24> O    2.55780995  -0.14672122   0.75935371
| 25> O    0.89919442  -0.57981940   0.80912472
| 26> C    0.56415259  -0.49835789  -0.57710511
| 27> C   -0.75835099  -1.23541173  -0.42779413
| 28> C   -1.08711245  -0.33396465   0.72606242
| 29> C   -0.94655689   1.08792805   0.27271600
| 30> C    0.16370078   0.95871072  -0.80055555
| 31> H    2.67160592  -0.24396511   1.71489961
| 32> H    1.36161265  -0.90500948  -1.21401523
| 33> H   -0.62002221  -2.28614531  -0.14281427
| 34> H   -1.45067759  -1.15999367  -1.28824082
| 35> H   -1.60897595  -0.63585303   1.63780142
| 36> H   -0.67071572   1.75385852   1.10350251
| 37> H   -1.89698256   1.46910467  -0.14484234
| 38> H    1.02142151   1.61500724  -0.60444923
| 39> H   -0.19983343   1.14082232  -1.82365369
| 40> *
| 41>
| 42>                          ****END OF INPUT****

CARTESIAN COORDINATES (ANGSTROEM)
---------------------------------
  O      2.557810   -0.146721    0.759354
  O      0.899194   -0.579819    0.809125
  C      0.564153   -0.498358   -0.577105
  C     -0.758351   -1.235412   -0.427794
  C     -1.087112   -0.333965    0.726062
  C     -0.946557    1.087928    0.272716
  C      0.163701    0.958711   -0.800556
  H      2.671606   -0.243965    1.714900
  H      1.361613   -0.905009   -1.214015
  H     -0.620022   -2.286145   -0.142814
  H     -1.450678   -1.159994   -1.288241
  H     -1.608976   -0.635853    1.637801
  H     -0.670716    1.753859    1.103503
  H     -1.896983    1.469105   -0.144842
  H      1.021422    1.615007   -0.604449
  H     -0.199833    1.140822   -1.823654

 Total Charge           Charge          ....    0
 Multiplicity           Mult            ....    2
 Number of Electrons    NEL             ....   55
 Basis Dimension        Dim             ....  271

ORBITAL ENERGIES
----------------
                 SPIN UP ORBITALS
  NO   OCC          E(Eh)            E(eV)
   0   1.0000     -19.242366      -523.6114
   1   1.0000     -19.206658      -522.6397
   2   1.0000     -10.278590      -279.6946
   3   1.0000     -10.274439      -279.5817
   4   1.0000     -10.234813      -278.5034
   5   1.0000     -10.233237      -278.4605
   6   1.0000     -10.220411      -278.1115
   7   1.0000      -1.067619       -29.0514
   8   1.0000      -0.966256       -26.2932
   9   1.0000      -0.849805       -23.1244
  10   1.0000      -0.748151       -20.3582
  11   1.0000      -0.725303       -19.7365
  12   1.0000      -0.587303       -15.9813
  13   1.0000      -0.580568       -15.7981
  14   1.0000      -0.542333       -14.7576
  15   1.0000      -0.501852       -13.6561
  16   1.0000      -0.478124       -13.0104
  17   1.0000      -0.460103       -12.5200
  18   1.0000      -0.412708       -11.2303
  19   1.0000      -0.400842       -10.9075
  20   1.0000      -0.387889       -10.5550
  21   1.0000      -0.383046       -10.4232
  22   1.0000      -0.370894       -10.0925
  23   1.0000      -0.358238        -9.7481
  24   1.0000      -0.344151        -9.3648
  25   1.0000      -0.324230        -8.8227
  26   1.0000      -0.267575        -7.2811
  27   1.0000      -0.207690        -5.6515
  28   0.0000      -0.037315        -1.0154
  29   0.0000       0.044959         1.2234
  30   0.0000       0.068373         1.8605
  31   0.0000       0.079850         2.1728
  32   0.0000       0.083736         2.2786

                 SPIN DOWN ORBITALS
  NO   OCC          E(Eh)            E(eV)
   0   1.0000     -19.242593      -523.6176
   1   1.0000     -19.192485      -522.2541
   2   1.0000     -10.273954      -279.5685
   3   1.0000     -10.268655      -279.4243
   4   1.0000     -10.235467      -278.5212
   5   1.0000     -10.233828      -278.4766
   6   1.0000     -10.220299      -278.1085
   7   1.0000      -1.061621       -28.8882
   8   1.0000      -0.938781       -25.5455
   9   1.0000      -0.842773       -22.9330
  10   1.0000      -0.744957       -20.2713
  11   1.0000      -0.717030       -19.5114
  12   1.0000      -0.579952       -15.7813
  13   1.0000      -0.574554       -15.6344
  14   1.0000      -0.537800       -14.6343
  15   1.0000      -0.491319       -13.3695
  16   1.0000      -0.473551       -12.8860
  17   1.0000      -0.453043       -12.3279
  18   1.0000      -0.402959       -10.9651
  19   1.0000      -0.391154       -10.6438
  20   1.0000      -0.385045       -10.4776
  21   1.0000      -0.374825       -10.1995
  22   1.0000      -0.369681       -10.0595
  23   1.0000      -0.348094        -9.4721
  24   1.0000      -0.336674        -9.1614
  25   1.0000      -0.311912        -8.4876
  26   1.0000      -0.257062        -6.9950
  27   0.0000      -0.070781        -1.9260
  28   0.0000       0.006620         0.1801
  29   0.0000       0.046732         1.2716
  30   0.0000       0.071287         1.9398
  31   0.0000       0.081685         2.2228

MULLIKEN ATOMIC CHARGES AND SPIN POPULATIONS
--------------------------------------------
   0 O :   -0.441913    0.485392
   1 O :   -0.235630   -0.088070
   2 C :    0.080736    0.013195
   3 C :   -0.146984   -0.044100
   4 C :   -0.098842    0.606588
   5 C :   -0.183192   -0.035881
   6 C :   -0.199589    0.010919
   7 H :    0.306003   -0.010255
   8 H :    0.111132   -0.004899
   9 H :    0.113062    0.002790
  10 H :    0.104103    0.052391
  11 H :    0.140121   -0.026491
  12 H :    0.115663    0.011761
  13 H :    0.107831    0.029315
  14 H :    0.128631   -0.002034
  15 H :    0.098867   -0.000622
Sum of atomic charges         :    0.0000000

LOEWDIN ATOMIC CHARGES AND SPIN POPULATIONS
-------------------------------------------
   0 O :   -0.235446    0.443892
   1 O :    0.122682   -0.026831
   2 C :   -0.346537    0.014589
   3 C :   -0.237532    0.039061
   4 C :   -0.083384    0.438830
   5 C :   -0.251608    0.028412
   6 C :   -0.229979    0.003851
   7 H :    0.137593    0.004308
   8 H :    0.137162   -0.001520
   9 H :    0.145487    0.002012
  10 H :    0.141592    0.029069
  11 H :    0.130886    0.001029
  12 H :    0.144975    0.006150
  13 H :    0.144473    0.017941
  14 H :    0.144602   -0.000599
  15 H :    0.135034   -0.000195

  Mayer bond orders larger than 0.100000
B(  0-O ,  1-O ) :   0.5283 B(  0-O ,  4-C ) :   0.1171 B(  0-O ,  7-H ) :   0.9093
B(  1-O ,  2-C ) :   0.9657 B(  1-O ,  4-C ) :   0.4088 B(  2-C ,  3-C ) :   0.9872
B(  2-C ,  6-C ) :   1.0176 B(  2-C ,  8-H ) :   0.9477 B(  3-C ,  4-C ) :   1.0237
B(  3-C ,  9-H ) :   0.9476 B(  3-C , 10-H ) :   0.9328 B(  4-C ,  5-C ) :   1.0493
B(  4-C , 11-H ) :   0.9448 B(  5-C ,  6-C ) :   1.0592 B(  5-C , 12-H ) :   0.9424
B(  5-C , 13-H ) :   0.9354 B(  6-C , 14-H ) :   0.9492 B(  6-C , 15-H ) :   0.9451

Dispersion correction           -0.011475236
FINAL SINGLE POINT ENERGY      -345.953139643758

DIPOLE MOMENT
-------------
                                X             Y             Z
Electronic contribution:      2.66162      -1.58315       1.91705
Nuclear contribution   :     -3.69463       1.62287      -1.91795
                        -----------------------------------------
Total Dipole Moment    :     -1.03301       0.03973      -0.00091
                        -----------------------------------------
Magnitude (a.u.)       :      1.03377
Magnitude (Debye)      :      2.62764

Rotational constants in cm-1:     0.146302     0.077500     0.070076
Rotational constants in MHz :  4386.014711  2323.399495  2100.819693

                             ****ORCA TERMINATED NORMALLY****
TOTAL RUN TIME: 0 days 0 hours 0 minutes 26 seconds 381 msec
