                         Program Version 5.0.4 -  RELEASE  -
|  1> ! LooseOpt PBE0 RIJCOSX D3BJ def2-SVP def2/J
|  2> %geom Constraints
|  3> { B 0 1 1.7149509227165678 C }
|  4> { B 1 4 2.0031871742195047 C }
|  5>     end
|  6> end
|  7> %geom MaxIter 10 end
|  8> %output
|  9> xyzfile=True
| 10> end
| 11> %scf
| 12> maxiter 250
| 13> end
| 14> %output
| 15> Print[P_Hirshfeld] = 1
| 16> end
| 17> % maxcore
| 18> 4000
| 19> %pal nprocs 8
| 20> end
| 21> *xyz 0 2
| 22> O    2.32523019  -1.25201810   0.92350366
| 23> O    0.62953326  -1.14529272   0.72199970
| 24> C    0.40671397  -0.79638015  -0.62488672
| 25> C   -1.06087634  -1.23462085  -0.60642503
| 26> C   -1.24519711  -0.44534655   0.65378162
| 27> C   -0.78889364   0.95198825   0.39998445
| 28> C    0.30531957   0.73407299  -0.66974206
| 29> H    2.32258044  -1.64135728   1.79996636
| 30> H    1.12106563  -1.26148474  -1.30245979
| 31> H   -1.17881699  -2.30620258  -0.47338929
| 32> H   -1.65571960  -0.88278450  -1.45369272
| 33> H   -1.82287798  -0.75145850   1.50617517
| 34> H   -0.40026755   1.41897577   1.30422464
| 35> H   -1.60806437   1.57492028   0.02610331
| 36> H    1.25196638   1.18953073  -0.39021860
| 37> H    0.01064413   1.08450793  -1.65738469
| 38> *
| 39>
| 40>                          ****END OF INPUT****
 Total Charge           Charge          ....    0
 Multiplicity           Mult            ....    2
 Number of Electrons    NEL             ....   55
Dispersion correction           -0.011414114
FINAL SINGLE POINT ENERGY      -345.558837653538
Dispersion correction            ... done
Dispersion correction           -0.011422578
FINAL SINGLE POINT ENERGY      -345.561454956604
Dispersion correction            ... done
Dispersion correction           -0.011455840
FINAL SINGLE POINT ENERGY      -345.561872836497
Dispersion correction            ... done
Dispersion correction           -0.011476563
FINAL SINGLE POINT ENERGY      -345.561927165043
Dispersion correction            ... done
Dispersion correction           -0.011477250
FINAL SINGLE POINT ENERGY      -345.561939931640
Dispersion correction            ... done
                    ***********************HURRAY********************

CARTESIAN COORDINATES (ANGSTROEM)
---------------------------------
  O      2.313528   -1.162299    0.807768
  O      0.599781   -1.183746    0.747222
  C      0.381124   -0.830663   -0.619725
  C     -1.083647   -1.242037   -0.620136
  C     -1.265109   -0.459251    0.646961
  C     -0.768258    0.936365    0.418129
  C      0.345862    0.696262   -0.631961
  H      2.340498   -1.415307    1.740770
  H      1.100014   -1.323062   -1.288558
  H     -1.213513   -2.324282   -0.494223
  H     -1.682488   -0.881407   -1.478095
  H     -1.900277   -0.751816    1.486693
  H     -0.396112    1.391342    1.347737
  H     -1.574617    1.590867    0.038777
  H      1.318581    1.096270   -0.318363
  H      0.096972    1.099814   -1.625455

 Multiplicity           Mult            ....    2
 Number of Electrons    NEL             ....   55
 Basis Dimension        Dim             ....  143

ORBITAL ENERGIES
----------------
                 SPIN UP ORBITALS
  NO   OCC          E(Eh)            E(eV)
   0   1.0000     -19.244609      -523.6724
   1   1.0000     -19.208481      -522.6893
   2   1.0000     -10.281765      -279.7810
   3   1.0000     -10.281225      -279.7664
   4   1.0000     -10.242875      -278.7228
   5   1.0000     -10.241294      -278.6798
   6   1.0000     -10.229039      -278.3463
   7   1.0000      -1.052089       -28.6288
   8   1.0000      -0.948696       -25.8153
   9   1.0000      -0.838266       -22.8104
  10   1.0000      -0.739406       -20.1203
  11   1.0000      -0.715409       -19.4673
  12   1.0000      -0.579123       -15.7587
  13   1.0000      -0.571732       -15.5576
  14   1.0000      -0.539197       -14.6723
  15   1.0000      -0.498703       -13.5704
  16   1.0000      -0.474151       -12.9023
  17   1.0000      -0.455400       -12.3921
  18   1.0000      -0.408984       -11.1290
  19   1.0000      -0.396580       -10.7915
  20   1.0000      -0.385846       -10.4994
  21   1.0000      -0.381556       -10.3827
  22   1.0000      -0.368502       -10.0275
  23   1.0000      -0.354228        -9.6390
  24   1.0000      -0.342333        -9.3154
  25   1.0000      -0.318433        -8.6650
  26   1.0000      -0.260706        -7.0942
  27   1.0000      -0.202212        -5.5025
  28   0.0000      -0.029268        -0.7964
  29   0.0000       0.068211         1.8561
  30   0.0000       0.094112         2.5609
  31   0.0000       0.109836         2.9888
  32   0.0000       0.113145         3.0788

                 SPIN DOWN ORBITALS
  NO   OCC          E(Eh)            E(eV)
   0   1.0000     -19.245265      -523.6903
   1   1.0000     -19.194251      -522.3021
   2   1.0000     -10.280717      -279.7525
   3   1.0000     -10.270959      -279.4870
   4   1.0000     -10.243671      -278.7445
   5   1.0000     -10.242013      -278.6993
   6   1.0000     -10.228923      -278.3432
   7   1.0000      -1.047588       -28.5063
   8   1.0000      -0.921382       -25.0721
   9   1.0000      -0.831221       -22.6187
  10   1.0000      -0.736124       -20.0309
  11   1.0000      -0.707153       -19.2426
  12   1.0000      -0.571749       -15.5581
  13   1.0000      -0.565923       -15.3996
  14   1.0000      -0.534277       -14.5384
  15   1.0000      -0.488448       -13.2913
  16   1.0000      -0.470341       -12.7986
  17   1.0000      -0.448349       -12.2002
  18   1.0000      -0.399356       -10.8670
  19   1.0000      -0.387010       -10.5311
  20   1.0000      -0.383536       -10.4365
  21   1.0000      -0.373184       -10.1548
  22   1.0000      -0.367248        -9.9933
  23   1.0000      -0.344594        -9.3769
  24   1.0000      -0.334585        -9.1045
  25   1.0000      -0.305960        -8.3256
  26   1.0000      -0.249845        -6.7986
  27   0.0000      -0.061934        -1.6853
  28   0.0000       0.017827         0.4851
  29   0.0000       0.070155         1.9090
  30   0.0000       0.097592         2.6556
  31   0.0000       0.112762         3.0684

MULLIKEN ATOMIC CHARGES AND SPIN POPULATIONS
--------------------------------------------
   0 O :   -0.255666    0.485162
   1 O :   -0.315234   -0.099658
   2 C :   -0.003437    0.021103
   3 C :    0.044272   -0.059042
   4 C :   -0.135500    0.653250
   5 C :    0.026850   -0.056525
   6 C :    0.062229    0.007645
   7 H :    0.169340   -0.010067
   8 H :    0.048172   -0.004081
   9 H :    0.061042    0.003995
  10 H :    0.050871    0.049585
  11 H :    0.049786   -0.029862
  12 H :    0.059129    0.012579
  13 H :    0.046536    0.028626
  14 H :    0.057561   -0.001867
  15 H :    0.034049   -0.000842
Sum of atomic charges         :    0.0000000

LOEWDIN ATOMIC CHARGES AND SPIN POPULATIONS
-------------------------------------------
   0 O :   -0.160005    0.448820
   1 O :   -0.120228   -0.055541
   2 C :    0.057740    0.020323
   3 C :   -0.055445   -0.013014
   4 C :    0.070413    0.530506
   5 C :   -0.049025   -0.012000
   6 C :   -0.046423    0.005192
   7 H :    0.054886    0.004750
   8 H :    0.018256   -0.001810
   9 H :    0.037949    0.002927
  10 H :    0.029708    0.036872
  11 H :    0.023785    0.001072
  12 H :    0.039175    0.008978
  13 H :    0.036512    0.024072
  14 H :    0.036815   -0.000808
  15 H :    0.025888   -0.000340

  Mayer bond orders larger than 0.100000
B(  0-O ,  1-O ) :   0.5925 B(  0-O ,  4-C ) :   0.1164 B(  0-O ,  7-H ) :   0.9825
B(  1-O ,  2-C ) :   0.8850 B(  1-O ,  4-C ) :   0.4287 B(  2-C ,  3-C ) :   0.9907
B(  2-C ,  6-C ) :   1.0445 B(  2-C ,  8-H ) :   0.9531 B(  3-C ,  4-C ) :   0.9910
B(  3-C ,  9-H ) :   0.9420 B(  3-C , 10-H ) :   0.9310 B(  4-C ,  5-C ) :   1.0518
B(  4-C , 11-H ) :   0.9832 B(  5-C ,  6-C ) :   1.0586 B(  5-C , 12-H ) :   0.9324
B(  5-C , 13-H ) :   0.9155 B(  6-C , 14-H ) :   0.9279 B(  6-C , 15-H ) :   0.9369

Dispersion correction           -0.011475464
FINAL SINGLE POINT ENERGY      -345.561944630947

DIPOLE MOMENT
-------------
                                X             Y             Z
Electronic contribution:      2.23684      -2.47557       1.75083
Nuclear contribution   :     -3.08843       2.71976      -1.75395
                        -----------------------------------------
Total Dipole Moment    :     -0.85159       0.24419      -0.00312
                        -----------------------------------------
Magnitude (a.u.)       :      0.88591
Magnitude (Debye)      :      2.25181

Rotational constants in cm-1:     0.146344     0.077474     0.070067
Rotational constants in MHz :  4387.281674  2322.623613  2100.552439

                             ****ORCA TERMINATED NORMALLY****
TOTAL RUN TIME: 0 days 0 hours 1 minutes 9 seconds 421 msec
