   * xtb version 6.6.1 (8d0f1dd) compiled by 'conda@1efc2f54142f' on 2023-08-01
          program call               : /gpfs/fs1/home/copan/code/autode-practice/.pixi/envs/default/bin/xtb TS_vdwLSy_ll_ad_1-4_0-1_conf0_opt_xtb.xyz --chrg 0 --uhf 1 --opt --input xcontrol_TS_vdwLSy_ll_ad_1-4_0-1_conf0_opt_xtb

   ID    Z sym.   atoms
    1    8 O      1, 2
    2    6 C      3-7
    3    1 H      8-16
constraining bond 1 2 to    1.7150000 Å, actual value:    1.7149899 Å
constraining bond 2 5 to    2.0032000 Å, actual value:    2.0031811 Å

          :  Hamiltonian                  GFN2-xTB          :
 * total energy  :   -23.1882314 Eh     change       -0.1596529E-08 Eh
 * total energy  :   -23.2122785 Eh     change       -0.2404712E-01 Eh
 * total energy  :   -23.2222777 Eh     change       -0.9999249E-02 Eh
 * total energy  :   -23.2248722 Eh     change       -0.2594502E-02 Eh
 * total energy  :   -23.2173522 Eh     change        0.7520058E-02 Eh
 * total energy  :   -23.2277312 Eh     change       -0.1037897E-01 Eh
 * total energy  :   -23.2323387 Eh     change       -0.4607554E-02 Eh
 * total energy  :   -23.2333712 Eh     change       -0.1032490E-02 Eh
 * total energy  :   -23.2350801 Eh     change       -0.1708912E-02 Eh
 * total energy  :   -23.2360826 Eh     change       -0.1002456E-02 Eh
 * total energy  :   -23.2425309 Eh     change       -0.3641328E-04 Eh
 * total energy  :   -23.2425713 Eh     change       -0.4046471E-04 Eh
 * total energy  :   -23.2424542 Eh     change        0.1171396E-03 Eh
 * total energy  :   -23.2426011 Eh     change       -0.1469160E-03 Eh
 * total energy  :   -23.2426091 Eh     change       -0.7985215E-05 Eh
 * total energy  :   -23.2426191 Eh     change       -0.9982089E-05 Eh
 * total energy  :   -23.2426265 Eh     change       -0.7400952E-05 Eh
 * total energy  :   -23.2426272 Eh     change       -0.6963037E-06 Eh
 * total energy  :   -23.2426284 Eh     change       -0.1274001E-05 Eh
   *** GEOMETRY OPTIMIZATION CONVERGED AFTER 57 ITERATIONS ***

 final structure:
================
16
 xtb: 6.6.1 (8d0f1dd)
O            2.62966144645235        0.01023572177205        0.91591477722234
O            0.97121188499365       -0.40109164834768        0.82763606513961
C            0.63235969764667       -0.40797913063777       -0.54020342651397
C           -0.64818830264046       -1.22122800260650       -0.32798302064810
C           -1.02635754288201       -0.27542009064611        0.77079455446722
C           -0.99237418020382        1.11226642836096        0.22464071113838
C            0.09671245549495        0.99268888053787       -0.86557279304601
H            2.75172130511243       -0.16177429049114        1.85116791823231
H            1.43713580242490       -0.78462566323796       -1.16965623075622
H           -1.33521240209387       -1.22725041933975       -1.17856905080844
H           -0.45205253183156       -2.23336973078422        0.01399930938406
H           -1.47744226972417       -0.54998118919596        1.70634320676652
H           -0.73460856376511        1.84101357564604        0.99241816533104
H           -1.96246248343749        1.39706791813173       -0.19565374141098
H            0.87875550014177        1.73911171499391       -0.75133607057590
H           -0.30566981570146        1.03949592584502       -1.87602037392079

          :  Hamiltonian                  GFN2-xTB          :
         :: total energy             -23.242628449696 Eh    ::
         :: gradient norm              0.000389374233 Eh/a0 ::
         :: HOMO-LUMO gap              2.408836939889 eV    ::
         :: SCC energy               -23.476216054244 Eh    ::
         :: -> dispersion             -0.009865956468 Eh    ::
         :: repulsion energy           0.233439202025 Eh    ::

    * Orbital Energies and Occupations

         #    Occupation            Energy/Eh            Energy/eV
      -------------------------------------------------------------
         1        2.0000           -0.6929895             -18.8572
       ...           ...                  ...                  ...
         9        2.0000           -0.5420809             -14.7508
        10        2.0000           -0.5362463             -14.5920
        11        2.0000           -0.5227001             -14.2234
        12        2.0000           -0.4985385             -13.5659
        13        2.0000           -0.4860051             -13.2249
        14        2.0000           -0.4762930             -12.9606
        15        2.0000           -0.4700035             -12.7894
        16        2.0000           -0.4646410             -12.6435
        17        2.0000           -0.4562564             -12.4154
        18        2.0000           -0.4421451             -12.0314
        19        2.0000           -0.4362090             -11.8699
        20        2.0000           -0.4014927             -10.9252
        21        1.0000           -0.3298694              -8.9762 (HOMO)
        22                         -0.2413462              -6.5674 (LUMO)
        23                          0.0315534               0.8586
        24                          0.0511190               1.3910
        25                          0.0638061               1.7363
        26                          0.0883824               2.4050
        27                          0.1087462               2.9591
        28                          0.1295191               3.5244
        29                          0.1443568               3.9281
        30                          0.1613662               4.3910
        31                          0.1833091               4.9881
        32                          0.1917188               5.2169
       ...                                ...                  ...
        37                          0.3656749               9.9505
      -------------------------------------------------------------
                  HL-Gap            0.0885231 Eh            2.4088 eV

     #   Z          covCN         q      C6AA      α(0)
     1   8 O        1.220    -0.443    22.306     6.344
     2   8 O        1.446    -0.255    18.431     5.785
     3   6 C        4.013     0.133    18.361     6.087
     4   6 C        3.861    -0.059    21.594     6.609
     5   6 C        3.319     0.016    25.536     8.046
     6   6 C        3.841    -0.055    21.538     6.602
     7   6 C        3.844    -0.070    21.798     6.641
     8   1 H        0.805     0.288     0.760     1.369
     9   1 H        0.925     0.047     2.354     2.399
    10   1 H        0.924     0.055     2.256     2.349
    11   1 H        0.925     0.061     2.185     2.311
    12   1 H        0.926     0.060     2.198     2.319
    13   1 H        0.925     0.065     2.145     2.291
    14   1 H        0.924     0.057     2.236     2.338
    15   1 H        0.925     0.063     2.167     2.302
    16   1 H        0.925     0.037     2.491     2.468

Wiberg/Mayer (AO) data.
largest (>0.10) Wiberg bond orders for each atom

     #   Z sym  total        # sym  WBO       # sym  WBO       # sym  WBO
 ---------------------------------------------------------------------------
     1   8 O    1.847 --     8 H    0.915     2 O    0.670     5 C    0.184
     2   8 O    2.121 --     3 C    0.993     1 O    0.670     5 C    0.369
     3   6 C    3.946 --     2 O    0.993     7 C    0.985     9 H    0.961
                             4 C    0.952
     4   6 C    3.988 --     5 C    1.035    11 H    0.973     3 C    0.952
                            10 H    0.945
     5   6 C    3.725 --     6 C    1.059     4 C    1.035    12 H    0.972
                             2 O    0.369     1 O    0.184
     6   6 C    3.996 --     5 C    1.059     7 C    0.995    13 H    0.965
                            14 H    0.943
     7   6 C    3.995 --     6 C    0.995     3 C    0.985    16 H    0.980
                            15 H    0.978
     8   1 H    0.917 --     1 O    0.915
     9   1 H    0.998 --     3 C    0.961
    10   1 H    0.996 --     4 C    0.945
    11   1 H    0.996 --     4 C    0.973
    12   1 H    0.996 --     5 C    0.972
    13   1 H    0.996 --     6 C    0.965
    14   1 H    0.996 --     6 C    0.943
    15   1 H    0.996 --     7 C    0.978
    16   1 H    0.999 --     7 C    0.980
 ---------------------------------------------------------------------------

molecular dipole:
                 x           y           z       tot (Debye)
 q only:       -1.331       0.010      -0.296
   full:       -1.311      -0.056      -0.153       3.359

           -------------------------------------------------
          | TOTAL ENERGY              -23.242628449696 Eh   |
          | GRADIENT NORM               0.000389374233 Eh/α |
          | HOMO-LUMO GAP               2.408836939889 eV   |
           -------------------------------------------------

 * finished run on 2025/05/23 at 13:15:48.984
