   * xtb version 6.6.1 (8d0f1dd) compiled by 'conda@1efc2f54142f' on 2023-08-01
          program call               : /gpfs/fs1/home/copan/code/autode-practice/.pixi/envs/default/bin/xtb TS_vdwLSy_ll_ad_1-4_0-1_conf164_opt_xtb.xyz --chrg 0 --uhf 1 --opt --input xcontrol_TS_vdwLSy_ll_ad_1-4_0-1_conf164_opt_xtb

   ID    Z sym.   atoms
    1    8 O      1, 2
    2    6 C      3-7
    3    1 H      8-16
constraining bond 1 2 to    1.7150000 Å, actual value:    1.7149880 Å
constraining bond 2 5 to    2.0032000 Å, actual value:    2.0031811 Å

          :  Hamiltonian                  GFN2-xTB          :
 * total energy  :   -23.1833304 Eh     change       -0.4004121E-09 Eh
 * total energy  :   -23.2067900 Eh     change       -0.2345963E-01 Eh
 * total energy  :   -23.2172383 Eh     change       -0.1044828E-01 Eh
 * total energy  :   -23.2158426 Eh     change        0.1395690E-02 Eh
 * total energy  :   -23.2083326 Eh     change        0.7509957E-02 Eh
 * total energy  :   -23.2189631 Eh     change       -0.1063044E-01 Eh
 * total energy  :   -23.2244989 Eh     change       -0.5535837E-02 Eh
 * total energy  :   -23.2262011 Eh     change       -0.1702173E-02 Eh
 * total energy  :   -23.2278220 Eh     change       -0.1620975E-02 Eh
 * total energy  :   -23.2281520 Eh     change       -0.3299711E-03 Eh
 * total energy  :   -23.2425223 Eh     change       -0.5314697E-05 Eh
 * total energy  :   -23.2425641 Eh     change       -0.4172663E-04 Eh
 * total energy  :   -23.2425924 Eh     change       -0.2832309E-04 Eh
 * total energy  :   -23.2426058 Eh     change       -0.1338447E-04 Eh
 * total energy  :   -23.2426132 Eh     change       -0.7410163E-05 Eh
 * total energy  :   -23.2426193 Eh     change       -0.6078983E-05 Eh
 * total energy  :   -23.2426220 Eh     change       -0.2770637E-05 Eh
 * total energy  :   -23.2426259 Eh     change       -0.3870653E-05 Eh
 * total energy  :   -23.2426281 Eh     change       -0.2228761E-05 Eh
   *** GEOMETRY OPTIMIZATION CONVERGED AFTER 51 ITERATIONS ***

 final structure:
================
16
 xtb: 6.6.1 (8d0f1dd)
O            2.32523019089883       -1.25201810324726        0.92350365635709
O            0.62953325791056       -1.14529271970077        0.72199970271382
C            0.40671396617886       -0.79638015151136       -0.62488672316489
C           -1.06087634128891       -1.23462084801126       -0.60642502764816
C           -1.24519710576594       -0.44534655400582        0.65378162387388
C           -0.78889363587056        0.95198824704786        0.39998444758669
C            0.30531956924319        0.73407299133302       -0.66974205682799
H            2.32258044349628       -1.64135727889629        1.79996636007641
H            1.12106563350370       -1.26148473570980       -1.30245979231484
H           -1.17881699007814       -2.30620257878838       -0.47338929347216
H           -1.65571960060783       -0.88278449529565       -1.45369271689161
H           -1.82287797808436       -0.75145849646938        1.50617516838584
H           -0.40026755062172        1.41897577351698        1.30422463883179
H           -1.60806437300467        1.57492028493626        0.02610330567342
H            1.25196638063402        1.18953073042298       -0.39021860152986
H            0.01064413346598        1.08450793438394       -1.65738469165390

          :  Hamiltonian                  GFN2-xTB          :
         :: total energy             -23.242628126832 Eh    ::
         :: gradient norm              0.000796943798 Eh/a0 ::
         :: HOMO-LUMO gap              2.409665353345 eV    ::
         :: SCC energy               -23.476192196972 Eh    ::
         :: -> dispersion             -0.009864721570 Eh    ::
         :: repulsion energy           0.233414364769 Eh    ::

    * Orbital Energies and Occupations

         #    Occupation            Energy/Eh            Energy/eV
      -------------------------------------------------------------
         1        2.0000           -0.6930018             -18.8575
       ...           ...                  ...                  ...
         9        2.0000           -0.5420802             -14.7508
        10        2.0000           -0.5363039             -14.5936
        11        2.0000           -0.5226315             -14.2215
        12        2.0000           -0.4985906             -13.5673
        13        2.0000           -0.4860108             -13.2250
        14        2.0000           -0.4763138             -12.9612
        15        2.0000           -0.4699913             -12.7891
        16        2.0000           -0.4646371             -12.6434
        17        2.0000           -0.4562204             -12.4144
        18        2.0000           -0.4421367             -12.0312
        19        2.0000           -0.4360638             -11.8659
        20        2.0000           -0.4015457             -10.9266
        21        1.0000           -0.3298629              -8.9760 (HOMO)
        22                         -0.2413093              -6.5664 (LUMO)
        23                          0.0315623               0.8589
        24                          0.0512023               1.3933
        25                          0.0638217               1.7367
        26                          0.0883310               2.4036
        27                          0.1088674               2.9624
        28                          0.1295578               3.5254
        29                          0.1443608               3.9283
        30                          0.1613539               4.3907
        31                          0.1833617               4.9895
        32                          0.1912416               5.2039
       ...                                ...                  ...
        37                          0.3658335               9.9548
      -------------------------------------------------------------
                  HL-Gap            0.0885536 Eh            2.4097 eV

     #   Z          covCN         q      C6AA      α(0)
     1   8 O        1.220    -0.443    22.306     6.344
     2   8 O        1.446    -0.255    18.432     5.785
     3   6 C        4.014     0.133    18.360     6.087
     4   6 C        3.861    -0.059    21.595     6.609
     5   6 C        3.320     0.016    25.530     8.045
     6   6 C        3.841    -0.055    21.539     6.602
     7   6 C        3.844    -0.070    21.798     6.641
     8   1 H        0.805     0.288     0.760     1.369
     9   1 H        0.925     0.047     2.355     2.400
    10   1 H        0.925     0.061     2.185     2.312
    11   1 H        0.924     0.055     2.256     2.349
    12   1 H        0.926     0.060     2.197     2.318
    13   1 H        0.925     0.065     2.145     2.290
    14   1 H        0.924     0.057     2.235     2.338
    15   1 H        0.925     0.063     2.165     2.301
    16   1 H        0.925     0.037     2.491     2.468

Wiberg/Mayer (AO) data.
largest (>0.10) Wiberg bond orders for each atom

     #   Z sym  total        # sym  WBO       # sym  WBO       # sym  WBO
 ---------------------------------------------------------------------------
     1   8 O    1.847 --     8 H    0.915     2 O    0.670     5 C    0.184
     2   8 O    2.121 --     3 C    0.993     1 O    0.670     5 C    0.369
     3   6 C    3.946 --     2 O    0.993     7 C    0.985     9 H    0.961
                             4 C    0.952
     4   6 C    3.988 --     5 C    1.035    10 H    0.973     3 C    0.952
                            11 H    0.945
     5   6 C    3.725 --     6 C    1.059     4 C    1.035    12 H    0.972
                             2 O    0.369     1 O    0.184
     6   6 C    3.996 --     5 C    1.059     7 C    0.995    13 H    0.965
                            14 H    0.943
     7   6 C    3.995 --     6 C    0.995     3 C    0.985    16 H    0.980
                            15 H    0.978
     8   1 H    0.917 --     1 O    0.915
     9   1 H    0.998 --     3 C    0.961
    10   1 H    0.996 --     4 C    0.973
    11   1 H    0.996 --     4 C    0.945
    12   1 H    0.996 --     5 C    0.972
    13   1 H    0.996 --     6 C    0.965
    14   1 H    0.996 --     6 C    0.943
    15   1 H    0.996 --     7 C    0.978
    16   1 H    0.999 --     7 C    0.980
 ---------------------------------------------------------------------------

molecular dipole:
                 x           y           z       tot (Debye)
 q only:       -1.250       0.439      -0.317
   full:       -1.261       0.340      -0.191       3.355

           -------------------------------------------------
          | TOTAL ENERGY              -23.242628126832 Eh   |
          | GRADIENT NORM               0.000796943798 Eh/α |
          | HOMO-LUMO GAP               2.409665353345 eV   |
           -------------------------------------------------

 * finished run on 2025/05/23 at 13:15:48.953
