                         Program Version 5.0.4 -  RELEASE  -
|  1> ! LooseOpt PBE0 RIJCOSX D3BJ def2-SVP def2/J
|  2> %geom MaxIter 10 end
|  3> %output
|  4> xyzfile=True
|  5> end
|  6> %scf
|  7> maxiter 250
|  8> end
|  9> %output
| 10> Print[P_Hirshfeld] = 1
| 11> end
| 12> % maxcore
| 13> 4000
| 14> %pal nprocs 8
| 15> end
| 16> *xyz 0 1
| 17> C    1.14578066   0.49693531   0.14417173
| 18> C    0.39765664  -0.45573436   1.10197236
| 19> C   -0.98938346  -0.33523125   0.44823683
| 20> C   -0.67483721  -0.51677062  -1.04027931
| 21> C   -0.05459969   0.85358452  -0.74861105
| 22> O   -1.09871589   1.07929883   0.21422596
| 23> H    1.53788576   1.37507861   0.65182205
| 24> H    1.94434483   0.01353660  -0.41433595
| 25> H    0.77407749  -1.47607833   1.08238491
| 26> H    0.38667713  -0.09272352   2.12718194
| 27> H   -1.84235291  -0.79029296   0.94256094
| 28> H   -1.56014154  -0.44909180  -1.66512065
| 29> H   -0.02820192  -1.33454070  -1.34762157
| 30> H    0.06181010   1.63202966  -1.49668819
| 31> *
| 32>
| 33>                          ****END OF INPUT****
 Total Charge           Charge          ....    0
 Multiplicity           Mult            ....    1
 Number of Electrons    NEL             ....   46
Dispersion correction           -0.009663945
FINAL SINGLE POINT ENERGY      -270.017288565036
Dispersion correction            ... done
Dispersion correction           -0.009624544
FINAL SINGLE POINT ENERGY      -270.018338482664
Dispersion correction            ... done
                    ***********************HURRAY********************

CARTESIAN COORDINATES (ANGSTROEM)
---------------------------------
  C      1.151298    0.499663    0.146233
  C      0.399945   -0.456194    1.108494
  C     -0.983449   -0.342816    0.444821
  C     -0.683532   -0.520170   -1.051059
  C     -0.049459    0.846276   -0.750976
  O     -1.097507    1.077759    0.214770
  H      1.540798    1.393998    0.652704
  H      1.970697    0.018667   -0.408998
  H      0.788326   -1.485885    1.106233
  H      0.376433   -0.086537    2.143328
  H     -1.848778   -0.797759    0.947375
  H     -1.586763   -0.431958   -1.669147
  H     -0.043189   -1.354256   -1.380254
  H      0.065181    1.639211   -1.503622

 Multiplicity           Mult            ....    1
 Number of Electrons    NEL             ....   46
 Basis Dimension        Dim             ....  124

ORBITAL ENERGIES
----------------

  NO   OCC          E(Eh)            E(eV)
   0   2.0000     -19.200675      -522.4769
   1   2.0000     -10.284982      -279.8686
   2   2.0000     -10.284945      -279.8676
   3   2.0000     -10.236351      -278.5453
   4   2.0000     -10.232422      -278.4383
   5   2.0000     -10.232315      -278.4354
   6   2.0000      -1.083226       -29.4761
   7   2.0000      -0.814597       -22.1663
   8   2.0000      -0.730386       -19.8748
   9   2.0000      -0.721945       -19.6451
  10   2.0000      -0.583691       -15.8830
  11   2.0000      -0.557439       -15.1687
  12   2.0000      -0.539825       -14.6894
  13   2.0000      -0.482970       -13.1423
  14   2.0000      -0.472370       -12.8538
  15   2.0000      -0.447592       -12.1796
  16   2.0000      -0.384924       -10.4743
  17   2.0000      -0.367052        -9.9880
  18   2.0000      -0.363444        -9.8898
  19   2.0000      -0.361451        -9.8356
  20   2.0000      -0.334108        -9.0915
  21   2.0000      -0.324783        -8.8378
  22   2.0000      -0.261864        -7.1257
  23   0.0000       0.070869         1.9285
  24   0.0000       0.095423         2.5966
  25   0.0000       0.105891         2.8815
  26   0.0000       0.112648         3.0653
  27   0.0000       0.122053         3.3212

MULLIKEN ATOMIC CHARGES
-----------------------
   0 C :    0.038467
   1 C :    0.037926
   2 C :   -0.012230
   3 C :    0.003326
   4 C :   -0.012491
   5 O :   -0.390965
   6 H :    0.048443
   7 H :    0.037601
   8 H :    0.037717
   9 H :    0.048507
  10 H :    0.032162
  11 H :    0.057722
  12 H :    0.041489
  13 H :    0.032326
Sum of atomic charges:    0.0000000

LOEWDIN ATOMIC CHARGES
----------------------
   0 C :   -0.049745
   1 C :   -0.049776
   2 C :    0.076486
   3 C :   -0.050246
   4 C :    0.076545
   5 O :   -0.201323
   6 H :    0.030626
   7 H :    0.026619
   8 H :    0.026613
   9 H :    0.030660
  10 H :    0.014991
  11 H :    0.033728
  12 H :    0.019783
  13 H :    0.015038

  Mayer bond orders larger than 0.100000
B(  0-C ,  1-C ) :   1.0807 B(  0-C ,  4-C ) :   1.0336 B(  0-C ,  6-H ) :   0.9314
B(  0-C ,  7-H ) :   0.9320 B(  1-C ,  2-C ) :   1.0335 B(  1-C ,  8-H ) :   0.9322
B(  1-C ,  9-H ) :   0.9315 B(  2-C ,  3-C ) :   1.0023 B(  2-C ,  5-O ) :   0.9378
B(  2-C , 10-H ) :   0.9693 B(  3-C ,  4-C ) :   1.0021 B(  3-C , 11-H ) :   0.9372
B(  3-C , 12-H ) :   0.9543 B(  4-C ,  5-O ) :   0.9381 B(  4-C , 13-H ) :   0.9693

Dispersion correction           -0.009618826
FINAL SINGLE POINT ENERGY      -270.018403608533

DIPOLE MOMENT
-------------
                                X             Y             Z
Electronic contribution:     -2.42333       1.95711       0.05362
Nuclear contribution   :      2.80179      -2.49103      -0.28927
                        -----------------------------------------
Total Dipole Moment    :      0.37846      -0.53393      -0.23565
                        -----------------------------------------
Magnitude (a.u.)       :      0.69558
Magnitude (Debye)      :      1.76804

Rotational constants in cm-1:     0.188528     0.154462     0.139565
Rotational constants in MHz :  5651.916901  4630.653772  4184.041484

                             ****ORCA TERMINATED NORMALLY****
TOTAL RUN TIME: 0 days 0 hours 0 minutes 18 seconds 798 msec
