   * xtb version 6.6.1 (8d0f1dd) compiled by 'conda@1efc2f54142f' on 2023-08-01
          program call               : /gpfs/fs1/home/copan/code/autode-practice/.pixi/envs/default/bin/xtb p0_C5H8O_conf0_opt_xtb.xyz --chrg 0 --uhf 0 --opt

   ID    Z sym.   atoms
    1    6 C      1-5
    2    8 O      6
    3    1 H      7-14

          :  Hamiltonian                  GFN2-xTB          :
 * total energy  :   -18.8027322 Eh     change       -0.9798384E-11 Eh
 * total energy  :   -18.8150792 Eh     change       -0.1234707E-01 Eh
 * total energy  :   -18.8170295 Eh     change       -0.1950249E-02 Eh
 * total energy  :   -18.8175325 Eh     change       -0.5029721E-03 Eh
 * total energy  :   -18.8177745 Eh     change       -0.2420282E-03 Eh
 * total energy  :   -18.8178303 Eh     change       -0.5584559E-04 Eh
 * total energy  :   -18.8178436 Eh     change       -0.1331221E-04 Eh
 * total energy  :   -18.8178458 Eh     change       -0.2198064E-05 Eh
   *** GEOMETRY OPTIMIZATION CONVERGED AFTER 8 ITERATIONS ***

 final structure:
================
14
 xtb: 6.6.1 (8d0f1dd)
C            1.14578066471265        0.49693531295445        0.14417172946192
C            0.39765663918111       -0.45573436478773        1.10197235694392
C           -0.98938346084926       -0.33523124508746        0.44823683072903
C           -0.67483720587573       -0.51677061903801       -1.04027931131441
C           -0.05459969343024        0.85358452384601       -0.74861104841816
O           -1.09871588834821        1.07929883162645        0.21422595822571
H            1.53788575570670        1.37507861226821        0.65182205220504
H            1.94434482915999        0.01353660011666       -0.41433595239901
H            0.77407749179344       -1.47607833134548        1.08238490876072
H            0.38667712962179       -0.09272351880927        2.12718194324122
H           -1.84235290781461       -0.79029296447860        0.94256094366024
H           -1.56014154122461       -0.44909179934417       -1.66512064803697
H           -0.02820191528873       -1.33454070051373       -1.34762157005491
H            0.06181010265570        1.63202966259267       -1.49668819300435

          :  Hamiltonian                  GFN2-xTB          :
         :: total energy             -18.817845841719 Eh    ::
         :: gradient norm              0.000468530772 Eh/a0 ::
         :: HOMO-LUMO gap             10.760775335119 eV    ::
         :: SCC energy               -19.031857748044 Eh    ::
         :: -> dispersion             -0.008179610893 Eh    ::
         :: repulsion energy           0.214004202972 Eh    ::

    * Orbital Energies and Occupations

         #    Occupation            Energy/Eh            Energy/eV
      -------------------------------------------------------------
         1        2.0000           -0.7032727             -19.1370
       ...           ...                  ...                  ...
         5        2.0000           -0.5760973             -15.6764
         6        2.0000           -0.5693826             -15.4937
         7        2.0000           -0.5535651             -15.0633
         8        2.0000           -0.5369123             -14.6101
         9        2.0000           -0.5286582             -14.3855
        10        2.0000           -0.5243498             -14.2683
        11        2.0000           -0.4684805             -12.7480
        12        2.0000           -0.4659832             -12.6800
        13        2.0000           -0.4599241             -12.5152
        14        2.0000           -0.4545652             -12.3693
        15        2.0000           -0.4485528             -12.2057
        16        2.0000           -0.4348074             -11.8317
        17        2.0000           -0.3976164             -10.8197 (HOMO)
        18                         -0.0021651              -0.0589 (LUMO)
        19                          0.0029284               0.0797
        20                          0.0237078               0.6451
        21                          0.0544803               1.4825
        22                          0.0789682               2.1488
        23                          0.1055033               2.8709
        24                          0.1098865               2.9902
        25                          0.1323933               3.6026
        26                          0.1608192               4.3761
        27                          0.1936245               5.2688
        28                          0.2100577               5.7160
       ...                                ...                  ...
        32                          0.3378163               9.1924
      -------------------------------------------------------------
                  HL-Gap            0.3954512 Eh           10.7608 eV

     #   Z          covCN         q      C6AA      α(0)
     1   6 C        3.865    -0.067    21.739     6.630
     2   6 C        3.865    -0.067    21.739     6.630
     3   6 C        4.404     0.114    18.631     6.130
     4   6 C        3.909    -0.073    21.832     6.641
     5   6 C        4.404     0.114    18.632     6.130
     6   8 O        1.775    -0.334    19.581     5.975
     7   1 H        0.925     0.047     2.355     2.400
     8   1 H        0.925     0.036     2.501     2.473
     9   1 H        0.925     0.036     2.501     2.473
    10   1 H        0.925     0.047     2.356     2.401
    11   1 H        0.925     0.033     2.544     2.494
    12   1 H        0.925     0.047     2.359     2.402
    13   1 H        0.925     0.033     2.548     2.496
    14   1 H        0.925     0.033     2.544     2.494

Wiberg/Mayer (AO) data.
largest (>0.10) Wiberg bond orders for each atom

     #   Z sym  total        # sym  WBO       # sym  WBO       # sym  WBO
 ---------------------------------------------------------------------------
     1   6 C    3.996 --     2 C    1.003     5 C    0.985     8 H    0.980
                             7 H    0.980
     2   6 C    3.996 --     1 C    1.003     3 C    0.985     9 H    0.980
                            10 H    0.980
     3   6 C    3.944 --     4 C    0.988     2 C    0.985    11 H    0.968
                             6 O    0.960
     4   6 C    3.984 --     3 C    0.988     5 C    0.988    13 H    0.979
                            12 H    0.978
     5   6 C    3.944 --     4 C    0.988     1 C    0.985    14 H    0.968
                             6 O    0.960
     6   8 O    2.024 --     3 C    0.960     5 C    0.960
     7   1 H    0.998 --     1 C    0.980
     8   1 H    0.999 --     1 C    0.980
     9   1 H    0.999 --     2 C    0.980
    10   1 H    0.998 --     2 C    0.980
    11   1 H    0.999 --     3 C    0.968
    12   1 H    0.998 --     4 C    0.978
    13   1 H    0.999 --     4 C    0.979
    14   1 H    0.999 --     5 C    0.968
 ---------------------------------------------------------------------------

molecular dipole:
                 x           y           z       tot (Debye)
 q only:        0.471      -0.558      -0.187
   full:        0.487      -0.614      -0.230       2.076

           -------------------------------------------------
          | TOTAL ENERGY              -18.817845841719 Eh   |
          | GRADIENT NORM               0.000468530772 Eh/α |
          | HOMO-LUMO GAP              10.760775335119 eV   |
           -------------------------------------------------

 * finished run on 2025/05/23 at 13:08:55.299
