   * xtb version 6.6.1 (8d0f1dd) compiled by 'conda@1efc2f54142f' on 2023-08-01
          program call               : /gpfs/fs1/home/copan/code/autode-practice/.pixi/envs/default/bin/xtb r0_C5H9O2_conf0_opt_xtb.xyz --chrg 0 --uhf 1 --opt

   ID    Z sym.   atoms
    1    8 O      1, 2
    2    6 C      3-7
    3    1 H      8-16

          :  Hamiltonian                  GFN2-xTB          :
 * total energy  :   -23.2411198 Eh     change       -0.2876526E-09 Eh
 * total energy  :   -23.2604350 Eh     change       -0.1931518E-01 Eh
 * total energy  :   -23.2660113 Eh     change       -0.5576267E-02 Eh
 * total energy  :   -23.2683258 Eh     change       -0.2314504E-02 Eh
 * total energy  :   -23.2701592 Eh     change       -0.1833404E-02 Eh
 * total energy  :   -23.2716748 Eh     change       -0.1515591E-02 Eh
 * total energy  :   -23.2727138 Eh     change       -0.1039011E-02 Eh
 * total energy  :   -23.2731931 Eh     change       -0.4792910E-03 Eh
 * total energy  :   -23.2736668 Eh     change       -0.4737361E-03 Eh
 * total energy  :   -23.2738923 Eh     change       -0.2254583E-03 Eh
 * total energy  :   -23.2767048 Eh     change       -0.4055252E-05 Eh
 * total energy  :   -23.2767094 Eh     change       -0.4662416E-05 Eh
 * total energy  :   -23.2767136 Eh     change       -0.4198598E-05 Eh
 * total energy  :   -23.2767156 Eh     change       -0.1997604E-05 Eh
 * total energy  :   -23.2767187 Eh     change       -0.3055469E-05 Eh
 * total energy  :   -23.2767212 Eh     change       -0.2529541E-05 Eh
 * total energy  :   -23.2767251 Eh     change       -0.3846452E-05 Eh
 * total energy  :   -23.2767293 Eh     change       -0.4216794E-05 Eh
 * total energy  :   -23.2767332 Eh     change       -0.3924934E-05 Eh
   *** GEOMETRY OPTIMIZATION CONVERGED AFTER 42 ITERATIONS ***

 final structure:
================
16
 xtb: 6.6.1 (8d0f1dd)
O            2.71400436485232       -1.07128826644659        0.33909262584954
O            1.71764360493369       -0.22127275953998        0.91286835530157
C            0.73710387700857        0.07252742341974       -0.05041750765628
C           -0.17779626980363       -1.11056155725041       -0.41517763811488
C           -1.49313825034717       -0.48065698778917       -0.64702425086226
C           -1.51603032230609        0.93620947159623       -0.21648420814889
C           -0.21018054458162        1.10921377521470        0.56411813452809
H            3.43361241415205       -0.98886872860116        0.97765337338199
H            1.22121748019416        0.46606092114607       -0.95451814490785
H           -0.20203541526249       -1.81016721364604        0.43331436731564
H            0.19220655505876       -1.67659977459132       -1.27467046555859
H           -2.32785776647197       -0.98357224237835       -1.09448617036777
H           -2.39616751163782        1.18172540824179        0.38570859583200
H           -1.53478158219729        1.61324373280890       -1.08347927490198
H           -0.35243368461135        0.84666637622078        1.61285532691034
H            0.19483305101974        2.11734042159480        0.51054688139945

          :  Hamiltonian                  GFN2-xTB          :
         :: total energy             -23.276733196227 Eh    ::
         :: gradient norm              0.000802391430 Eh/a0 ::
         :: HOMO-LUMO gap              3.901819521509 eV    ::
         :: SCC energy               -23.510229617368 Eh    ::
         :: -> dispersion             -0.009612562486 Eh    ::
         :: repulsion energy           0.233480798031 Eh    ::

    * Orbital Energies and Occupations

         #    Occupation            Energy/Eh            Energy/eV
      -------------------------------------------------------------
         1        2.0000           -0.7170543             -19.5120
       ...           ...                  ...                  ...
         9        2.0000           -0.5504045             -14.9773
        10        2.0000           -0.5397680             -14.6878
        11        2.0000           -0.5193892             -14.1333
        12        2.0000           -0.5114263             -13.9166
        13        2.0000           -0.4914557             -13.3732
        14        2.0000           -0.4742988             -12.9063
        15        2.0000           -0.4675891             -12.7237
        16        2.0000           -0.4536096             -12.3433
        17        2.0000           -0.4499316             -12.2433
        18        2.0000           -0.4474176             -12.1749
        19        2.0000           -0.4344764             -11.8227
        20        2.0000           -0.4011032             -10.9146
        21        1.0000           -0.2926058              -7.9622 (HOMO)
        22                         -0.1492166              -4.0604 (LUMO)
        23                          0.0507548               1.3811
        24                          0.0746582               2.0316
        25                          0.0973209               2.6482
        26                          0.1101119               2.9963
        27                          0.1235318               3.3615
        28                          0.1319280               3.5899
        29                          0.1431440               3.8951
        30                          0.1644801               4.4757
        31                          0.1870006               5.0885
        32                          0.2084494               5.6722
       ...                                ...                  ...
        37                          0.3964562              10.7881
      -------------------------------------------------------------
                  HL-Gap            0.1433892 Eh            3.9018 eV

     #   Z          covCN         q      C6AA      α(0)
     1   8 O        1.732    -0.329    19.501     5.963
     2   8 O        1.776    -0.218    17.608     5.666
     3   6 C        3.761     0.127    18.566     6.143
     4   6 C        3.819    -0.064    21.706     6.630
     5   6 C        2.929    -0.081    30.029     8.987
     6   6 C        3.821    -0.054    21.522     6.602
     7   6 C        3.834    -0.066    21.746     6.635
     8   1 H        0.805     0.318     0.669     1.285
     9   1 H        0.923     0.032     2.554     2.499
    10   1 H        0.923     0.065     2.140     2.288
    11   1 H        0.924     0.050     2.319     2.381
    12   1 H        0.926     0.029     2.606     2.524
    13   1 H        0.924     0.047     2.355     2.400
    14   1 H        0.923     0.048     2.350     2.397
    15   1 H        0.924     0.055     2.261     2.352
    16   1 H        0.925     0.042     2.427     2.436

Wiberg/Mayer (AO) data.
largest (>0.10) Wiberg bond orders for each atom

     #   Z sym  total        # sym  WBO       # sym  WBO       # sym  WBO
 ---------------------------------------------------------------------------
     1   8 O    1.904 --     2 O    0.969     8 H    0.892
     2   8 O    2.010 --     3 C    0.977     1 O    0.969
     3   6 C    3.937 --     4 C    0.978     2 O    0.977     7 C    0.976
                             9 H    0.963
     4   6 C    3.997 --     5 C    1.081     3 C    0.978    11 H    0.954
                            10 H    0.931
     5   6 C    3.290 --     4 C    1.081     6 C    1.072    12 H    0.976
     6   6 C    3.997 --     5 C    1.072     7 C    1.001    13 H    0.955
                            14 H    0.939
     7   6 C    3.994 --     6 C    1.001    16 H    0.980     3 C    0.976
                            15 H    0.976
     8   1 H    0.899 --     1 O    0.892
     9   1 H    0.999 --     3 C    0.963
    10   1 H    0.993 --     4 C    0.931
    11   1 H    0.997 --     4 C    0.954
    12   1 H    0.999 --     5 C    0.976
    13   1 H    0.997 --     6 C    0.955
    14   1 H    0.996 --     6 C    0.939
    15   1 H    0.997 --     7 C    0.976
    16   1 H    0.998 --     7 C    0.980
 ---------------------------------------------------------------------------

molecular dipole:
                 x           y           z       tot (Debye)
 q only:       -0.157       0.252       0.048
   full:        0.004       0.302       0.106       0.813

           -------------------------------------------------
          | TOTAL ENERGY              -23.276733196227 Eh   |
          | GRADIENT NORM               0.000802391430 Eh/α |
          | HOMO-LUMO GAP               3.901819521509 eV   |
           -------------------------------------------------

 * finished run on 2025/05/23 at 13:07:09.640
