   * xtb version 6.6.1 (8d0f1dd) compiled by 'conda@1efc2f54142f' on 2023-08-01
          program call               : /gpfs/fs1/home/copan/code/autode-practice/.pixi/envs/default/bin/xtb r0_C5H9O2_conf1_opt_xtb.xyz --chrg 0 --uhf 1 --opt

   ID    Z sym.   atoms
    1    8 O      1, 2
    2    6 C      3-7
    3    1 H      8-16

          :  Hamiltonian                  GFN2-xTB          :
 * total energy  :   -23.2467855 Eh     change       -0.1412168E-09 Eh
 * total energy  :   -23.2658489 Eh     change       -0.1906336E-01 Eh
 * total energy  :   -23.2705306 Eh     change       -0.4681780E-02 Eh
 * total energy  :   -23.2718680 Eh     change       -0.1337370E-02 Eh
 * total energy  :   -23.2724499 Eh     change       -0.5818837E-03 Eh
 * total energy  :   -23.2728952 Eh     change       -0.4453384E-03 Eh
 * total energy  :   -23.2732767 Eh     change       -0.3814664E-03 Eh
 * total energy  :   -23.2735788 Eh     change       -0.3020712E-03 Eh
 * total energy  :   -23.2738836 Eh     change       -0.3047823E-03 Eh
 * total energy  :   -23.2737667 Eh     change        0.1168997E-03 Eh
 * total energy  :   -23.2762551 Eh     change       -0.1681872E-03 Eh
 * total energy  :   -23.2763211 Eh     change       -0.6601790E-04 Eh
 * total energy  :   -23.2764705 Eh     change       -0.1493700E-03 Eh
 * total energy  :   -23.2765257 Eh     change       -0.5521511E-04 Eh
 * total energy  :   -23.2765482 Eh     change       -0.2246496E-04 Eh
 * total energy  :   -23.2765592 Eh     change       -0.1105826E-04 Eh
 * total energy  :   -23.2765670 Eh     change       -0.7727770E-05 Eh
 * total energy  :   -23.2765746 Eh     change       -0.7669871E-05 Eh
 * total energy  :   -23.2765764 Eh     change       -0.1781155E-05 Eh
   *** GEOMETRY OPTIMIZATION CONVERGED AFTER 31 ITERATIONS ***

 final structure:
================
16
 xtb: 6.6.1 (8d0f1dd)
O            2.33596228440911       -1.21769115943050        0.80387963281044
O            1.60359685079815       -0.01737689730860        0.54307239005474
C            0.67994756064895       -0.24400517049514       -0.49946335054979
C           -0.46570980214869       -1.17833912096241       -0.07559062984796
C           -1.50775290732958       -0.26743181979461        0.44575878550084
C           -1.16698659402143        1.15487471554924        0.22277029353386
C            0.00919913854714        1.10910887333621       -0.75903991035415
H            3.06973059872568       -0.88780791380690        1.33718345369077
H            1.22331993383735       -0.62491797176455       -1.37406939086202
H           -0.11737839510966       -1.90242473794209        0.66745298166162
H           -0.81669047730708       -1.75795368280487       -0.93975699431619
H           -2.34635198790466       -0.59508244437725        1.02744723985944
H           -0.85765500066960        1.63631677962073        1.16162001992085
H           -2.00879476658609        1.73756727531849       -0.16444209446108
H            0.71621217145024        1.92253911109217       -0.60977871439877
H           -0.35034860733990        1.13282416377023       -1.78704371224267

          :  Hamiltonian                  GFN2-xTB          :
         :: total energy             -23.276576421394 Eh    ::
         :: gradient norm              0.000577471459 Eh/a0 ::
         :: HOMO-LUMO gap              3.874819579675 eV    ::
         :: SCC energy               -23.510144496897 Eh    ::
         :: -> dispersion             -0.009792229924 Eh    ::
         :: repulsion energy           0.233542028493 Eh    ::

    * Orbital Energies and Occupations

         #    Occupation            Energy/Eh            Energy/eV
      -------------------------------------------------------------
         1        2.0000           -0.7148156             -19.4511
       ...           ...                  ...                  ...
         9        2.0000           -0.5485625             -14.9271
        10        2.0000           -0.5389252             -14.6649
        11        2.0000           -0.5139626             -13.9856
        12        2.0000           -0.5106997             -13.8968
        13        2.0000           -0.4991421             -13.5823
        14        2.0000           -0.4715104             -12.8304
        15        2.0000           -0.4561716             -12.4131
        16        2.0000           -0.4501146             -12.2482
        17        2.0000           -0.4480907             -12.1932
        18        2.0000           -0.4447595             -12.1025
        19        2.0000           -0.4431381             -12.0584
        20        2.0000           -0.3996210             -10.8742
        21        1.0000           -0.2893633              -7.8740 (HOMO)
        22                         -0.1469663              -3.9992 (LUMO)
        23                          0.0538237               1.4646
        24                          0.0707757               1.9259
        25                          0.1006996               2.7402
        26                          0.1087956               2.9605
        27                          0.1177512               3.2042
        28                          0.1337077               3.6384
        29                          0.1451243               3.9490
        30                          0.1592970               4.3347
        31                          0.1876625               5.1066
        32                          0.2144227               5.8347
       ...                                ...                  ...
        37                          0.3954268              10.7601
      -------------------------------------------------------------
                  HL-Gap            0.1423970 Eh            3.8748 eV

     #   Z          covCN         q      C6AA      α(0)
     1   8 O        1.732    -0.333    19.567     5.973
     2   8 O        1.776    -0.215    17.554     5.658
     3   6 C        3.756     0.126    18.584     6.146
     4   6 C        3.818    -0.062    21.671     6.625
     5   6 C        2.926    -0.076    29.902     8.968
     6   6 C        3.819    -0.052    21.492     6.598
     7   6 C        3.833    -0.065    21.723     6.631
     8   1 H        0.805     0.317     0.672     1.287
     9   1 H        0.924     0.027     2.629     2.536
    10   1 H        0.924     0.066     2.129     2.282
    11   1 H        0.923     0.045     2.380     2.413
    12   1 H        0.926     0.027     2.629     2.536
    13   1 H        0.923     0.055     2.255     2.348
    14   1 H        0.924     0.044     2.401     2.423
    15   1 H        0.925     0.050     2.315     2.379
    16   1 H        0.925     0.045     2.386     2.415

Wiberg/Mayer (AO) data.
largest (>0.10) Wiberg bond orders for each atom

     #   Z sym  total        # sym  WBO       # sym  WBO       # sym  WBO
 ---------------------------------------------------------------------------
     1   8 O    1.906 --     2 O    0.970     8 H    0.893
     2   8 O    2.007 --     3 C    0.973     1 O    0.970
     3   6 C    3.939 --     4 C    0.981     7 C    0.978     2 O    0.973
                             9 H    0.964
     4   6 C    3.997 --     5 C    1.076     3 C    0.981    10 H    0.946
                            11 H    0.940
     5   6 C    3.287 --     4 C    1.076     6 C    1.076    12 H    0.976
     6   6 C    3.998 --     5 C    1.076     7 C    1.002    14 H    0.955
                            13 H    0.936
     7   6 C    3.995 --     6 C    1.002     3 C    0.978    16 H    0.977
                            15 H    0.977
     8   1 H    0.899 --     1 O    0.893
     9   1 H    0.999 --     3 C    0.964
    10   1 H    0.995 --     4 C    0.946
    11   1 H    0.996 --     4 C    0.940
    12   1 H    0.999 --     5 C    0.976
    13   1 H    0.995 --     6 C    0.936
    14   1 H    0.997 --     6 C    0.955
    15   1 H    0.997 --     7 C    0.977
    16   1 H    0.998 --     7 C    0.977
 ---------------------------------------------------------------------------

molecular dipole:
                 x           y           z       tot (Debye)
 q only:       -0.092       0.251      -0.144
   full:        0.093       0.281      -0.116       0.807

           -------------------------------------------------
          | TOTAL ENERGY              -23.276576421394 Eh   |
          | GRADIENT NORM               0.000577471459 Eh/α |
          | HOMO-LUMO GAP               3.874819579675 eV   |
           -------------------------------------------------

 * finished run on 2025/05/23 at 13:07:09.585
