                         Program Version 5.0.4 -  RELEASE  -
|  1> ! LooseOpt PBE0 RIJCOSX D3BJ def2-SVP def2/J
|  2> %geom MaxIter 10 end
|  3> %output
|  4> xyzfile=True
|  5> end
|  6> %scf
|  7> maxiter 250
|  8> end
|  9> %output
| 10> Print[P_Hirshfeld] = 1
| 11> end
| 12> % maxcore
| 13> 4000
| 14> %pal nprocs 8
| 15> end
| 16> *xyz 0 2
| 17> O    2.33596228  -1.21769116   0.80387963
| 18> O    1.60359685  -0.01737690   0.54307239
| 19> C    0.67994756  -0.24400517  -0.49946335
| 20> C   -0.46570980  -1.17833912  -0.07559063
| 21> C   -1.50775291  -0.26743182   0.44575879
| 22> C   -1.16698659   1.15487472   0.22277029
| 23> C    0.00919914   1.10910887  -0.75903991
| 24> H    3.06973060  -0.88780791   1.33718345
| 25> H    1.22331993  -0.62491797  -1.37406939
| 26> H   -0.11737840  -1.90242474   0.66745298
| 27> H   -0.81669048  -1.75795368  -0.93975699
| 28> H   -2.34635199  -0.59508244   1.02744724
| 29> H   -0.85765500   1.63631678   1.16162002
| 30> H   -2.00879477   1.73756728  -0.16444209
| 31> H    0.71621217   1.92253911  -0.60977871
| 32> H   -0.35034861   1.13282416  -1.78704371
| 33> *
| 34>
| 35>                          ****END OF INPUT****
 Total Charge           Charge          ....    0
 Multiplicity           Mult            ....    2
 Number of Electrons    NEL             ....   55
 Basis Dimension        Dim             ....  143

ORBITAL ENERGIES
----------------
                 SPIN UP ORBITALS
  NO   OCC          E(Eh)            E(eV)
   0   1.0000     -19.254778      -523.9491
   1   1.0000     -19.252388      -523.8841
   2   1.0000     -10.279471      -279.7186
   3   1.0000     -10.231037      -278.4007
   4   1.0000     -10.226721      -278.2832
   5   1.0000     -10.226345      -278.2730
   6   1.0000     -10.222441      -278.1668
   7   1.0000      -1.137516       -30.9534
   8   1.0000      -0.933442       -25.4003
   9   1.0000      -0.843613       -22.9559
  10   1.0000      -0.733197       -19.9513
  11   1.0000      -0.708413       -19.2769
  12   1.0000      -0.581049       -15.8112
  13   1.0000      -0.575541       -15.6613
  14   1.0000      -0.542196       -14.7539
  15   1.0000      -0.513095       -13.9620
  16   1.0000      -0.501401       -13.6438
  17   1.0000      -0.455174       -12.3859
  18   1.0000      -0.436385       -11.8747
  19   1.0000      -0.410482       -11.1698
  20   1.0000      -0.379509       -10.3270
  21   1.0000      -0.368928       -10.0390
  22   1.0000      -0.363747        -9.8981
  23   1.0000      -0.362402        -9.8615
  24   1.0000      -0.349327        -9.5057
  25   1.0000      -0.334589        -9.1046
  26   1.0000      -0.246508        -6.7078
  27   1.0000      -0.193130        -5.2553
  28   0.0000       0.047043         1.2801
  29   0.0000       0.071443         1.9441
  30   0.0000       0.099422         2.7054
  31   0.0000       0.107364         2.9215
  32   0.0000       0.123071         3.3489

                 SPIN DOWN ORBITALS
  NO   OCC          E(Eh)            E(eV)
   0   1.0000     -19.254811      -523.9500
   1   1.0000     -19.252349      -523.8830
   2   1.0000     -10.279382      -279.7162
   3   1.0000     -10.230954      -278.3984
   4   1.0000     -10.227892      -278.3151
   5   1.0000     -10.223626      -278.1990
   6   1.0000     -10.210784      -277.8496
   7   1.0000      -1.137494       -30.9528
   8   1.0000      -0.932797       -25.3827
   9   1.0000      -0.834102       -22.6971
  10   1.0000      -0.729147       -19.8411
  11   1.0000      -0.697289       -18.9742
  12   1.0000      -0.579608       -15.7719
  13   1.0000      -0.562740       -15.3129
  14   1.0000      -0.535133       -14.5617
  15   1.0000      -0.509068       -13.8524
  16   1.0000      -0.498465       -13.5639
  17   1.0000      -0.447594       -12.1796
  18   1.0000      -0.431507       -11.7419
  19   1.0000      -0.401877       -10.9356
  20   1.0000      -0.374736       -10.1971
  21   1.0000      -0.362187        -9.8556
  22   1.0000      -0.359717        -9.7884
  23   1.0000      -0.357078        -9.7166
  24   1.0000      -0.348311        -9.4780
  25   1.0000      -0.333863        -9.0849
  26   1.0000      -0.246362        -6.7038
  27   0.0000      -0.021333        -0.5805
  28   0.0000       0.047904         1.3035
  29   0.0000       0.073160         1.9908
  30   0.0000       0.101645         2.7659
  31   0.0000       0.111307         3.0288

MULLIKEN ATOMIC CHARGES AND SPIN POPULATIONS
--------------------------------------------
   0 O :   -0.157829    0.000375
   1 O :   -0.284561   -0.000760
   2 C :    0.049559    0.004474
   3 C :    0.082603   -0.106302
   4 C :   -0.198244    1.069084
   5 C :    0.020807   -0.106658
   6 C :   -0.039255    0.008187
   7 H :    0.189779    0.000439
   8 H :    0.023185   -0.000239
   9 H :    0.056307    0.034734
  10 H :    0.043397    0.055955
  11 H :    0.023906   -0.050383
  12 H :    0.052228    0.059628
  13 H :    0.042264    0.032914
  14 H :    0.046349   -0.000550
  15 H :    0.049505   -0.000897
Sum of atomic charges         :    0.0000000

LOEWDIN ATOMIC CHARGES AND SPIN POPULATIONS
-------------------------------------------
   0 O :   -0.066637    0.000830
   1 O :   -0.101302   -0.000713
   2 C :    0.048217    0.003257
   3 C :   -0.065922   -0.013731
   4 C :   -0.025428    0.865449
   5 C :   -0.055674   -0.014533
   6 C :   -0.039385    0.003905
   7 H :    0.076967    0.000372
   8 H :    0.009199   -0.000042
   9 H :    0.040222    0.029754
  10 H :    0.035554    0.046808
  11 H :    0.009231    0.001670
  12 H :    0.036726    0.049802
  13 H :    0.031487    0.028067
  14 H :    0.031778   -0.000339
  15 H :    0.034967   -0.000553

  Mayer bond orders larger than 0.100000
B(  0-O ,  1-O ) :   0.9299 B(  0-O ,  7-H ) :   0.9716 B(  1-O ,  2-C ) :   0.9354
B(  2-C ,  3-C ) :   1.0180 B(  2-C ,  6-C ) :   1.0545 B(  2-C ,  8-H ) :   0.9405
B(  3-C ,  4-C ) :   1.0420 B(  3-C ,  9-H ) :   0.9212 B(  3-C , 10-H ) :   0.9220
B(  4-C ,  5-C ) :   1.0637 B(  4-C , 11-H ) :   0.9823 B(  5-C ,  6-C ) :   1.0496
B(  5-C , 12-H ) :   0.9205 B(  5-C , 13-H ) :   0.9432 B(  6-C , 14-H ) :   0.9411
B(  6-C , 15-H ) :   0.9475

Dispersion correction           -0.011251732
FINAL SINGLE POINT ENERGY      -345.604122000582
Dispersion correction            ... done
Dispersion correction           -0.011284456
FINAL SINGLE POINT ENERGY      -345.606175133153
Dispersion correction            ... done
Dispersion correction           -0.011293891
FINAL SINGLE POINT ENERGY      -345.606391254662
Dispersion correction            ... done
FINAL SINGLE POINT ENERGY      -345.606542386038
FINAL SINGLE POINT ENERGY      -345.606565446423
FINAL SINGLE POINT ENERGY      -345.606585540639
FINAL SINGLE POINT ENERGY      -345.606598841512
Dispersion correction           -0.011346535
FINAL SINGLE POINT ENERGY      -345.606679336616
Dispersion correction            ... done
Dispersion correction           -0.011367557
FINAL SINGLE POINT ENERGY      -345.606764513163
Dispersion correction            ... done

CARTESIAN COORDINATES (ANGSTROEM)
---------------------------------
  O      2.148659   -1.139381    1.112758
  O      1.526905    0.063138    0.706100
  C      0.720193   -0.222878   -0.419037
  C     -0.432331   -1.174990   -0.074449
  C     -1.488418   -0.273503    0.468470
  C     -1.159674    1.159275    0.227977
  C      0.019066    1.091436   -0.758642
  H      3.061313   -0.985208    0.832382
  H      1.364190   -0.610219   -1.229952
  H     -0.119792   -1.978107    0.610511
  H     -0.766247   -1.659814   -1.017088
  H     -2.369522   -0.617479    1.015948
  H     -0.824628    1.639910    1.170136
  H     -2.006709    1.754506   -0.154155
  H      0.693311    1.957300   -0.703891
  H     -0.366015    0.996214   -1.787068

Dispersion correction           -0.011382220
FINAL SINGLE POINT ENERGY      -345.606872729467
Dispersion correction            ... done

DIPOLE MOMENT
-------------
                                X             Y             Z
Electronic contribution:      3.87095      -1.71328       1.24355
Nuclear contribution   :     -3.64268       1.33296      -2.77373
                        -----------------------------------------
Total Dipole Moment    :      0.22827      -0.38032      -1.53017
                        -----------------------------------------
Magnitude (a.u.)       :      1.59317
Magnitude (Debye)      :      4.04951

Rotational constants in cm-1:     0.163572     0.070105     0.060299
Rotational constants in MHz :  4903.778170  2101.684198  1807.719200

                             ****ORCA TERMINATED NORMALLY****
TOTAL RUN TIME: 0 days 0 hours 1 minutes 44 seconds 583 msec
