                         Program Version 5.0.4 -  RELEASE  -
|  1> ! EnGrad PBE0 RIJCOSX D3BJ def2-SVP def2/J
|  2> %output
|  3> xyzfile=True
|  4> end
|  5> %scf
|  6> maxiter 250
|  7> end
|  8> %output
|  9> Print[P_Hirshfeld] = 1
| 10> end
| 11> % maxcore
| 12> 4000
| 13> *xyz 0 2
| 14> O   -2.19867000  -0.95154000   0.99381000
| 15> O   -0.76850000   0.12633000   1.01754000
| 16> C   -0.65793000   0.58121000  -0.28553000
| 17> C    0.52241000   1.40626000   0.13336000
| 18> C    1.59340000   0.51020000   0.22482000
| 19> C    1.18135000  -0.71033000  -0.27482000
| 20> C   -0.09687000  -0.60480000  -1.03843000
| 21> H   -2.15557000  -1.07064000   1.95402000
| 22> H   -1.55224000   1.09292000  -0.67104000
| 23> H    0.46002000   2.42269000   0.52040000
| 24> H    2.55457000   0.70750000   0.70132000
| 25> H    1.79498000  -1.61428000  -0.24579000
| 26> H    0.09171000  -0.43038000  -2.11348000
| 27> H   -0.76867000  -1.46504000  -0.91620000
| 28> *
| 29>
| 30>                          ****END OF INPUT****

CARTESIAN COORDINATES (ANGSTROEM)
---------------------------------
  O     -2.198670   -0.951540    0.993810
  O     -0.768500    0.126330    1.017540
  C     -0.657930    0.581210   -0.285530
  C      0.522410    1.406260    0.133360
  C      1.593400    0.510200    0.224820
  C      1.181350   -0.710330   -0.274820
  C     -0.096870   -0.604800   -1.038430
  H     -2.155570   -1.070640    1.954020
  H     -1.552240    1.092920   -0.671040
  H      0.460020    2.422690    0.520400
  H      2.554570    0.707500    0.701320
  H      1.794980   -1.614280   -0.245790
  H      0.091710   -0.430380   -2.113480
  H     -0.768670   -1.465040   -0.916200

 Total Charge           Charge          ....    0
 Multiplicity           Mult            ....    2
 Number of Electrons    NEL             ....   53
 Basis Dimension        Dim             ....  133

ORBITAL ENERGIES
----------------
                 SPIN UP ORBITALS
  NO   OCC          E(Eh)            E(eV)
   0   1.0000     -19.245513      -523.6970
   1   1.0000     -19.219359      -522.9853
   2   1.0000     -10.288231      -279.9570
   3   1.0000     -10.269753      -279.4542
   4   1.0000     -10.258090      -279.1368
   5   1.0000     -10.247690      -278.8538
   6   1.0000     -10.234303      -278.4895
   7   1.0000      -1.054124       -28.6842
   8   1.0000      -0.955277       -25.9944
   9   1.0000      -0.858358       -23.3571
  10   1.0000      -0.744639       -20.2627
  11   1.0000      -0.706469       -19.2240
  12   1.0000      -0.581504       -15.8235
  13   1.0000      -0.562749       -15.3132
  14   1.0000      -0.551681       -15.0120
  15   1.0000      -0.485521       -13.2117
  16   1.0000      -0.465637       -12.6706
  17   1.0000      -0.435262       -11.8441
  18   1.0000      -0.413705       -11.2575
  19   1.0000      -0.407075       -11.0771
  20   1.0000      -0.399326       -10.8662
  21   1.0000      -0.378177       -10.2907
  22   1.0000      -0.357100        -9.7172
  23   1.0000      -0.319529        -8.6948
  24   1.0000      -0.313715        -8.5366
  25   1.0000      -0.264091        -7.1863
  26   1.0000      -0.211627        -5.7587
  27   0.0000      -0.065703        -1.7879
  28   0.0000       0.032352         0.8803
  29   0.0000       0.079131         2.1533
  30   0.0000       0.102732         2.7955
  31   0.0000       0.118369         3.2210

                 SPIN DOWN ORBITALS
  NO   OCC          E(Eh)            E(eV)
   0   1.0000     -19.249383      -523.8023
   1   1.0000     -19.207294      -522.6570
   2   1.0000     -10.288583      -279.9666
   3   1.0000     -10.262566      -279.2586
   4   1.0000     -10.251481      -278.9570
   5   1.0000     -10.248757      -278.8829
   6   1.0000     -10.234873      -278.5050
   7   1.0000      -1.056074       -28.7372
   8   1.0000      -0.929346       -25.2888
   9   1.0000      -0.851477       -23.1699
  10   1.0000      -0.740044       -20.1376
  11   1.0000      -0.696010       -18.9394
  12   1.0000      -0.576823       -15.6961
  13   1.0000      -0.560032       -15.2392
  14   1.0000      -0.545699       -14.8492
  15   1.0000      -0.479447       -13.0464
  16   1.0000      -0.462329       -12.5806
  17   1.0000      -0.428082       -11.6487
  18   1.0000      -0.409860       -11.1528
  19   1.0000      -0.402927       -10.9642
  20   1.0000      -0.394613       -10.7380
  21   1.0000      -0.375554       -10.2193
  22   1.0000      -0.341076        -9.2812
  23   1.0000      -0.311437        -8.4746
  24   1.0000      -0.287649        -7.8273
  25   1.0000      -0.257321        -7.0021
  26   0.0000      -0.088614        -2.4113
  27   0.0000      -0.034661        -0.9432
  28   0.0000       0.054296         1.4775
  29   0.0000       0.081036         2.2051
  30   0.0000       0.106496         2.8979

MULLIKEN ATOMIC CHARGES AND SPIN POPULATIONS
--------------------------------------------
   0 O :   -0.261362    0.427695
   1 O :   -0.276827   -0.176969
   2 C :    0.038525   -0.033842
   3 C :   -0.007597    0.523397
   4 C :    0.001617   -0.290228
   5 C :   -0.069895    0.624236
   6 C :    0.095395   -0.051612
   7 H :    0.178544   -0.009519
   8 H :    0.042159    0.002089
   9 H :    0.055517   -0.025074
  10 H :    0.036449    0.010642
  11 H :    0.036874   -0.030344
  12 H :    0.057877    0.025387
  13 H :    0.072722    0.004142
Sum of atomic charges         :    0.0000000

LOEWDIN ATOMIC CHARGES AND SPIN POPULATIONS
-------------------------------------------
   0 O :   -0.158405    0.394471
   1 O :   -0.101736   -0.144742
   2 C :    0.038384   -0.001088
   3 C :    0.017416    0.400691
   4 C :   -0.036255   -0.163668
   5 C :    0.032725    0.495245
   6 C :   -0.053326   -0.008849
   7 H :    0.059311    0.003250
   8 H :    0.020686    0.001427
   9 H :    0.034628   -0.000700
  10 H :    0.036119    0.000734
  11 H :    0.026811   -0.001141
  12 H :    0.039253    0.020386
  13 H :    0.044390    0.003986

  Mayer bond orders larger than 0.100000
B(  0-O ,  1-O ) :   0.6483 B(  0-O ,  7-H ) :   0.9790 B(  1-O ,  2-C ) :   0.9481
B(  1-O ,  3-C ) :   0.2121 B(  2-C ,  3-C ) :   0.9683 B(  2-C ,  6-C ) :   1.0098
B(  2-C ,  8-H ) :   0.9536 B(  3-C ,  4-C ) :   1.3020 B(  3-C ,  9-H ) :   0.9948
B(  4-C ,  5-C ) :   1.4655 B(  4-C , 10-H ) :   0.9932 B(  5-C ,  6-C ) :   0.9955
B(  5-C , 11-H ) :   0.9784 B(  6-C , 12-H ) :   0.9265 B(  6-C , 13-H ) :   0.9249

Dispersion correction           -0.010273614
FINAL SINGLE POINT ENERGY      -344.346531307656
Dispersion correction            ... done

DIPOLE MOMENT
-------------
                                X             Y             Z
Electronic contribution:     -0.78716       0.63167       1.65506
Nuclear contribution   :      1.45340      -0.39001      -1.79175
                        -----------------------------------------
Total Dipole Moment    :      0.66624       0.24167      -0.13669
                        -----------------------------------------
Magnitude (a.u.)       :      0.72178
Magnitude (Debye)      :      1.83461

Rotational constants in cm-1:     0.169415     0.077091     0.067866
Rotational constants in MHz :  5078.926461  2311.126367  2034.556575

                             ****ORCA TERMINATED NORMALLY****
TOTAL RUN TIME: 0 days 0 hours 1 minutes 31 seconds 491 msec
