                         Program Version 5.0.4 -  RELEASE  -
|  1> ! EnGrad PBE0 RIJCOSX D3BJ def2-SVP def2/J
|  2> %output
|  3> xyzfile=True
|  4> end
|  5> %scf
|  6> maxiter 250
|  7> end
|  8> %output
|  9> Print[P_Hirshfeld] = 1
| 10> end
| 11> % maxcore
| 12> 4000
| 13> *xyz 0 2
| 14> O   -2.13589748  -0.90107066   0.99871097
| 15> O   -0.90292952   0.10659332   1.06351185
| 16> C   -0.65801513   0.57934922  -0.28659642
| 17> C    0.52010253   1.40470844   0.13570855
| 18> C    1.59378143   0.50902119   0.22477240
| 19> C    1.25561943  -0.74095213  -0.32515851
| 20> C   -0.09531450  -0.60531270  -1.04039741
| 21> H   -2.15860533  -1.06042672   1.95799363
| 22> H   -1.55331193   1.09000837  -0.67131501
| 23> H    0.45635369   2.41972197   0.52487375
| 24> H    2.55385568   0.70750795   0.70245510
| 25> H    1.79784815  -1.61306558  -0.25039074
| 26> H    0.09271242  -0.42952097  -2.11533943
| 27> H   -0.76623314  -1.46652578  -0.91908200
| 28> *
| 29>
| 30>                          ****END OF INPUT****

CARTESIAN COORDINATES (ANGSTROEM)
---------------------------------
  O     -2.135897   -0.901071    0.998711
  O     -0.902930    0.106593    1.063512
  C     -0.658015    0.579349   -0.286596
  C      0.520103    1.404708    0.135709
  C      1.593781    0.509021    0.224772
  C      1.255619   -0.740952   -0.325159
  C     -0.095314   -0.605313   -1.040397
  H     -2.158605   -1.060427    1.957994
  H     -1.553312    1.090008   -0.671315
  H      0.456354    2.419722    0.524874
  H      2.553856    0.707508    0.702455
  H      1.797848   -1.613066   -0.250391
  H      0.092712   -0.429521   -2.115339
  H     -0.766233   -1.466526   -0.919082

 Total Charge           Charge          ....    0
 Multiplicity           Mult            ....    2
 Number of Electrons    NEL             ....   53
 Basis Dimension        Dim             ....  133

ORBITAL ENERGIES
----------------
                 SPIN UP ORBITALS
  NO   OCC          E(Eh)            E(eV)
   0   1.0000     -19.257602      -524.0260
   1   1.0000     -19.241590      -523.5903
   2   1.0000     -10.289771      -279.9989
   3   1.0000     -10.251538      -278.9585
   4   1.0000     -10.247078      -278.8372
   5   1.0000     -10.242754      -278.7195
   6   1.0000     -10.236529      -278.5501
   7   1.0000      -1.075626       -29.2693
   8   1.0000      -0.945397       -25.7256
   9   1.0000      -0.849062       -23.1042
  10   1.0000      -0.733424       -19.9575
  11   1.0000      -0.708971       -19.2921
  12   1.0000      -0.582960       -15.8631
  13   1.0000      -0.560091       -15.2408
  14   1.0000      -0.543178       -14.7806
  15   1.0000      -0.491059       -13.3624
  16   1.0000      -0.488176       -13.2840
  17   1.0000      -0.440553       -11.9881
  18   1.0000      -0.411224       -11.1900
  19   1.0000      -0.403378       -10.9765
  20   1.0000      -0.391492       -10.6530
  21   1.0000      -0.369972       -10.0675
  22   1.0000      -0.352633        -9.5956
  23   1.0000      -0.346396        -9.4259
  24   1.0000      -0.317040        -8.6271
  25   1.0000      -0.260048        -7.0763
  26   1.0000      -0.205859        -5.6017
  27   0.0000      -0.017716        -0.4821
  28   0.0000       0.037800         1.0286
  29   0.0000       0.083054         2.2600
  30   0.0000       0.096607         2.6288
  31   0.0000       0.117539         3.1984

                 SPIN DOWN ORBITALS
  NO   OCC          E(Eh)            E(eV)
   0   1.0000     -19.257010      -524.0099
   1   1.0000     -19.239325      -523.5286
   2   1.0000     -10.290173      -280.0099
   3   1.0000     -10.247047      -278.8363
   4   1.0000     -10.242201      -278.7045
   5   1.0000     -10.237100      -278.5656
   6   1.0000     -10.236517      -278.5498
   7   1.0000      -1.072033       -29.1715
   8   1.0000      -0.939732       -25.5714
   9   1.0000      -0.840428       -22.8692
  10   1.0000      -0.727867       -19.8063
  11   1.0000      -0.694037       -18.8857
  12   1.0000      -0.575605       -15.6630
  13   1.0000      -0.554431       -15.0868
  14   1.0000      -0.537602       -14.6289
  15   1.0000      -0.486258       -13.2318
  16   1.0000      -0.483882       -13.1671
  17   1.0000      -0.435122       -11.8403
  18   1.0000      -0.406783       -11.0691
  19   1.0000      -0.399886       -10.8814
  20   1.0000      -0.386764       -10.5244
  21   1.0000      -0.365859        -9.9555
  22   1.0000      -0.346569        -9.4306
  23   1.0000      -0.344254        -9.3676
  24   1.0000      -0.293906        -7.9976
  25   1.0000      -0.256326        -6.9750
  26   0.0000      -0.075190        -2.0460
  27   0.0000      -0.003673        -0.0999
  28   0.0000       0.062945         1.7128
  29   0.0000       0.085479         2.3260
  30   0.0000       0.099067         2.6957

MULLIKEN ATOMIC CHARGES AND SPIN POPULATIONS
--------------------------------------------
   0 O :   -0.210535    0.076388
   1 O :   -0.279251   -0.005535
   2 C :    0.053048   -0.041861
   3 C :   -0.025356    0.653146
   4 C :    0.000643   -0.329835
   5 C :   -0.055150    0.726984
   6 C :    0.064403   -0.055853
   7 H :    0.190697   -0.001281
   8 H :    0.045672    0.001584
   9 H :    0.045507   -0.031412
  10 H :    0.031222    0.012040
  11 H :    0.006581   -0.033799
  12 H :    0.063581    0.024990
  13 H :    0.068938    0.004444
Sum of atomic charges         :    0.0000000

LOEWDIN ATOMIC CHARGES AND SPIN POPULATIONS
-------------------------------------------
   0 O :   -0.112934    0.068958
   1 O :   -0.109145    0.007259
   2 C :    0.060294    0.000863
   3 C :   -0.025307    0.507846
   4 C :   -0.031167   -0.183683
   5 C :    0.020377    0.577193
   6 C :   -0.050174   -0.008736
   7 H :    0.073468    0.001216
   8 H :    0.021920    0.001064
   9 H :    0.030184   -0.001053
  10 H :    0.032148    0.000961
  11 H :    0.009450    0.003828
  12 H :    0.041380    0.020124
  13 H :    0.039505    0.004161

  Mayer bond orders larger than 0.100000
B(  0-O ,  1-O ) :   0.8874 B(  0-O ,  7-H ) :   0.9722 B(  1-O ,  2-C ) :   0.8935
B(  2-C ,  3-C ) :   0.9966 B(  2-C ,  6-C ) :   1.0226 B(  2-C ,  8-H ) :   0.9526
B(  3-C ,  4-C ) :   1.3708 B(  3-C ,  9-H ) :   0.9945 B(  4-C ,  5-C ) :   1.3977
B(  4-C , 10-H ) :   0.9908 B(  5-C ,  6-C ) :   0.9855 B(  5-C , 11-H ) :   0.9961
B(  6-C , 12-H ) :   0.9307 B(  6-C , 13-H ) :   0.9306

Dispersion correction           -0.010161604
FINAL SINGLE POINT ENERGY      -344.368064922547
Dispersion correction            ... done

DIPOLE MOMENT
-------------
                                X             Y             Z
Electronic contribution:     -1.16428       0.41227       1.81464
Nuclear contribution   :      1.46774      -0.38942      -1.80437
                        -----------------------------------------
Total Dipole Moment    :      0.30345       0.02285       0.01026
                        -----------------------------------------
Magnitude (a.u.)       :      0.30448
Magnitude (Debye)      :      0.77394

Rotational constants in cm-1:     0.166693     0.076877     0.067254
Rotational constants in MHz :  4997.338299  2304.714897  2016.212811

                             ****ORCA TERMINATED NORMALLY****
TOTAL RUN TIME: 0 days 0 hours 1 minutes 9 seconds 218 msec
