                         Program Version 5.0.4 -  RELEASE  -
|  1> ! EnGrad PBE0 RIJCOSX D3BJ def2-SVP def2/J
|  2> %output
|  3> xyzfile=True
|  4> end
|  5> %scf
|  6> maxiter 250
|  7> end
|  8> %output
|  9> Print[P_Hirshfeld] = 1
| 10> end
| 11> % maxcore
| 12> 4000
| 13> *xyz 0 2
| 14> O   -2.12718294  -0.89280762   1.00076212
| 15> O   -0.91551320   0.09920053   1.05928857
| 16> C   -0.65892869   0.57797006  -0.27778633
| 17> C    0.52369701   1.40228490   0.13340776
| 18> C    1.59255476   0.50672729   0.22315017
| 19> C    1.24327006  -0.72237259  -0.32788343
| 20> C   -0.08944336  -0.60772219  -1.03800262
| 21> H   -2.15904576  -1.05852417   1.95692658
| 22> H   -1.55294922   1.08946767  -0.67227807
| 23> H    0.45603816   2.41921535   0.52553891
| 24> H    2.55395900   0.70826806   0.70282538
| 25> H    1.80744176  -1.62586431  -0.25073852
| 26> H    0.09154722  -0.42863654  -2.11558163
| 27> H   -0.76544182  -1.46717622  -0.91987984
| 28> *
| 29>
| 30>                          ****END OF INPUT****

CARTESIAN COORDINATES (ANGSTROEM)
---------------------------------
  O     -2.127183   -0.892808    1.000762
  O     -0.915513    0.099201    1.059289
  C     -0.658929    0.577970   -0.277786
  C      0.523697    1.402285    0.133408
  C      1.592555    0.506727    0.223150
  C      1.243270   -0.722373   -0.327883
  C     -0.089443   -0.607722   -1.038003
  H     -2.159046   -1.058524    1.956927
  H     -1.552949    1.089468   -0.672278
  H      0.456038    2.419215    0.525539
  H      2.553959    0.708268    0.702825
  H      1.807442   -1.625864   -0.250739
  H      0.091547   -0.428637   -2.115582
  H     -0.765442   -1.467176   -0.919880

 Total Charge           Charge          ....    0
 Multiplicity           Mult            ....    2
 Number of Electrons    NEL             ....   53
 Basis Dimension        Dim             ....  133

ORBITAL ENERGIES
----------------
                 SPIN UP ORBITALS
  NO   OCC          E(Eh)            E(eV)
   0   1.0000     -19.257197      -524.0150
   1   1.0000     -19.243454      -523.6410
   2   1.0000     -10.289232      -279.9842
   3   1.0000     -10.249394      -278.9002
   4   1.0000     -10.246738      -278.8279
   5   1.0000     -10.240206      -278.6502
   6   1.0000     -10.235457      -278.5209
   7   1.0000      -1.084663       -29.5152
   8   1.0000      -0.946635       -25.7592
   9   1.0000      -0.852076       -23.1862
  10   1.0000      -0.733727       -19.9657
  11   1.0000      -0.707125       -19.2418
  12   1.0000      -0.580958       -15.8087
  13   1.0000      -0.558060       -15.1856
  14   1.0000      -0.541937       -14.7469
  15   1.0000      -0.495525       -13.4839
  16   1.0000      -0.491453       -13.3731
  17   1.0000      -0.441635       -12.0175
  18   1.0000      -0.408644       -11.1198
  19   1.0000      -0.401452       -10.9241
  20   1.0000      -0.394341       -10.7306
  21   1.0000      -0.371291       -10.1033
  22   1.0000      -0.352555        -9.5935
  23   1.0000      -0.347597        -9.4586
  24   1.0000      -0.318398        -8.6640
  25   1.0000      -0.258456        -7.0329
  26   1.0000      -0.204192        -5.5563
  27   0.0000      -0.008652        -0.2354
  28   0.0000       0.041138         1.1194
  29   0.0000       0.082087         2.2337
  30   0.0000       0.095627         2.6021
  31   0.0000       0.117051         3.1851

                 SPIN DOWN ORBITALS
  NO   OCC          E(Eh)            E(eV)
   0   1.0000     -19.256430      -523.9941
   1   1.0000     -19.241627      -523.5913
   2   1.0000     -10.289630      -279.9951
   3   1.0000     -10.244416      -278.7647
   4   1.0000     -10.239751      -278.6378
   5   1.0000     -10.236427      -278.5473
   6   1.0000     -10.235999      -278.5357
   7   1.0000      -1.081286       -29.4233
   8   1.0000      -0.941352       -25.6155
   9   1.0000      -0.843397       -22.9500
  10   1.0000      -0.727984       -19.8095
  11   1.0000      -0.692491       -18.8436
  12   1.0000      -0.573454       -15.6045
  13   1.0000      -0.553682       -15.0665
  14   1.0000      -0.534674       -14.5492
  15   1.0000      -0.490584       -13.3495
  16   1.0000      -0.487577       -13.2676
  17   1.0000      -0.436015       -11.8646
  18   1.0000      -0.404940       -11.0190
  19   1.0000      -0.397076       -10.8050
  20   1.0000      -0.389936       -10.6107
  21   1.0000      -0.366949        -9.9852
  22   1.0000      -0.347927        -9.4676
  23   1.0000      -0.344702        -9.3798
  24   1.0000      -0.294891        -8.0244
  25   1.0000      -0.254955        -6.9377
  26   0.0000      -0.072461        -1.9718
  27   0.0000       0.003651         0.0993
  28   0.0000       0.065601         1.7851
  29   0.0000       0.084926         2.3110
  30   0.0000       0.098152         2.6709

MULLIKEN ATOMIC CHARGES AND SPIN POPULATIONS
--------------------------------------------
   0 O :   -0.202120    0.061035
   1 O :   -0.277710    0.001422
   2 C :    0.049149   -0.042465
   3 C :   -0.027600    0.673513
   4 C :    0.001737   -0.324759
   5 C :   -0.076271    0.709292
   6 C :    0.064807   -0.054980
   7 H :    0.190628   -0.000912
   8 H :    0.044080    0.001576
   9 H :    0.045418   -0.032474
  10 H :    0.031098    0.011977
  11 H :    0.025353   -0.034619
  12 H :    0.063467    0.026697
  13 H :    0.067965    0.004696
Sum of atomic charges         :    0.0000000

LOEWDIN ATOMIC CHARGES AND SPIN POPULATIONS
-------------------------------------------
   0 O :   -0.105783    0.054897
   1 O :   -0.106129    0.013109
   2 C :    0.057626    0.001738
   3 C :   -0.027040    0.525056
   4 C :   -0.034638   -0.177866
   5 C :    0.009164    0.562444
   6 C :   -0.052613   -0.007459
   7 H :    0.073804    0.001139
   8 H :    0.020733    0.001122
   9 H :    0.029900   -0.001234
  10 H :    0.033548    0.001125
  11 H :    0.019785    0.000184
  12 H :    0.042085    0.021327
  13 H :    0.039560    0.004420

  Mayer bond orders larger than 0.100000
B(  0-O ,  1-O ) :   0.8952 B(  0-O ,  7-H ) :   0.9724 B(  1-O ,  2-C ) :   0.8967
B(  2-C ,  3-C ) :   0.9984 B(  2-C ,  6-C ) :   1.0206 B(  2-C ,  8-H ) :   0.9515
B(  3-C ,  4-C ) :   1.3594 B(  3-C ,  9-H ) :   0.9931 B(  4-C ,  5-C ) :   1.4163
B(  4-C , 10-H ) :   0.9915 B(  5-C ,  6-C ) :   0.9907 B(  5-C , 11-H ) :   0.9867
B(  6-C , 12-H ) :   0.9286 B(  6-C , 13-H ) :   0.9305

Dispersion correction           -0.010146995
FINAL SINGLE POINT ENERGY      -344.374157595198
Dispersion correction            ... done

DIPOLE MOMENT
-------------
                                X             Y             Z
Electronic contribution:     -1.21697       0.41109       1.84308
Nuclear contribution   :      1.48359      -0.40793      -1.80781
                        -----------------------------------------
Total Dipole Moment    :      0.26663       0.00316       0.03527
                        -----------------------------------------
Magnitude (a.u.)       :      0.26897
Magnitude (Debye)      :      0.68366

Rotational constants in cm-1:     0.168413     0.077185     0.067520
Rotational constants in MHz :  5048.889526  2313.942950  2024.196547

                             ****ORCA TERMINATED NORMALLY****
TOTAL RUN TIME: 0 days 0 hours 1 minutes 11 seconds 459 msec
