                         Program Version 5.0.4 -  RELEASE  -
|  1> ! EnGrad PBE0 RIJCOSX D3BJ def2-SVP def2/J
|  2> %output
|  3> xyzfile=True
|  4> end
|  5> %scf
|  6> maxiter 250
|  7> end
|  8> %output
|  9> Print[P_Hirshfeld] = 1
| 10> end
| 11> % maxcore
| 12> 4000
| 13> *xyz 0 2
| 14> O   -2.58696031   0.68459613   1.89533995
| 15> O   -0.42765446  -0.40411629   0.81848420
| 16> C   -0.72822825   0.14143748  -0.43408340
| 17> C    0.15265636   0.86188123   0.51854040
| 18> C    1.54113778   0.46402744   0.23214614
| 19> C    1.37999044  -0.61611008  -0.53598465
| 20> C    0.12295577  -0.67421660  -1.34646934
| 21> H   -2.13834494  -0.12945873   2.17005372
| 22> H   -1.76673833   0.42933783  -0.62139265
| 23> H   -0.19012180   1.71106638   1.11339208
| 24> H    2.43275425   0.77121547   0.77605711
| 25> H    2.20825738  -1.29298964  -0.77485021
| 26> H    0.28803984  -0.25627660  -2.35374645
| 27> H   -0.28774992  -1.69027636  -1.45748925
| 28> *
| 29>
| 30>                          ****END OF INPUT****

CARTESIAN COORDINATES (ANGSTROEM)
---------------------------------
  O     -2.586960    0.684596    1.895340
  O     -0.427654   -0.404116    0.818484
  C     -0.728228    0.141437   -0.434083
  C      0.152656    0.861881    0.518540
  C      1.541138    0.464027    0.232146
  C      1.379990   -0.616110   -0.535985
  C      0.122956   -0.674217   -1.346469
  H     -2.138345   -0.129459    2.170054
  H     -1.766738    0.429338   -0.621393
  H     -0.190122    1.711066    1.113392
  H      2.432754    0.771215    0.776057
  H      2.208257   -1.292990   -0.774850
  H      0.288040   -0.256277   -2.353746
  H     -0.287750   -1.690276   -1.457489

 Total Charge           Charge          ....    0
 Multiplicity           Mult            ....    2
 Number of Electrons    NEL             ....   53
 Basis Dimension        Dim             ....  133

ORBITAL ENERGIES
----------------
                 SPIN UP ORBITALS
  NO   OCC          E(Eh)            E(eV)
   0   1.0000     -19.243332      -523.6377
   1   1.0000     -19.224896      -523.1360
   2   1.0000     -10.291475      -280.0453
   3   1.0000     -10.290885      -280.0292
   4   1.0000     -10.245431      -278.7924
   5   1.0000     -10.241404      -278.6828
   6   1.0000     -10.233045      -278.4553
   7   1.0000      -1.131655       -30.7939
   8   1.0000      -0.996055       -27.1040
   9   1.0000      -0.841484       -22.8979
  10   1.0000      -0.754780       -20.5386
  11   1.0000      -0.679845       -18.4995
  12   1.0000      -0.599628       -16.3167
  13   1.0000      -0.567726       -15.4486
  14   1.0000      -0.564025       -15.3479
  15   1.0000      -0.474608       -12.9148
  16   1.0000      -0.471809       -12.8386
  17   1.0000      -0.457146       -12.4396
  18   1.0000      -0.436625       -11.8812
  19   1.0000      -0.413226       -11.2444
  20   1.0000      -0.400733       -10.9045
  21   1.0000      -0.398895       -10.8545
  22   1.0000      -0.372629       -10.1397
  23   1.0000      -0.331297        -9.0151
  24   1.0000      -0.323798        -8.8110
  25   1.0000      -0.304882        -8.2963
  26   1.0000      -0.243901        -6.6369
  27   0.0000      -0.006348        -0.1727
  28   0.0000       0.076697         2.0870
  29   0.0000       0.102560         2.7908
  30   0.0000       0.110781         3.0145
  31   0.0000       0.115167         3.1339

                 SPIN DOWN ORBITALS
  NO   OCC          E(Eh)            E(eV)
   0   1.0000     -19.223852      -523.1076
   1   1.0000     -19.216940      -522.9195
   2   1.0000     -10.291476      -280.0453
   3   1.0000     -10.290856      -280.0284
   4   1.0000     -10.245434      -278.7924
   5   1.0000     -10.241380      -278.6821
   6   1.0000     -10.232961      -278.4530
   7   1.0000      -1.130237       -30.7553
   8   1.0000      -0.921347       -25.0711
   9   1.0000      -0.840924       -22.8827
  10   1.0000      -0.754675       -20.5357
  11   1.0000      -0.679311       -18.4850
  12   1.0000      -0.599452       -16.3119
  13   1.0000      -0.566770       -15.4226
  14   1.0000      -0.563189       -15.3252
  15   1.0000      -0.472429       -12.8554
  16   1.0000      -0.471349       -12.8260
  17   1.0000      -0.438955       -11.9446
  18   1.0000      -0.428523       -11.6607
  19   1.0000      -0.408788       -11.1237
  20   1.0000      -0.400357       -10.8943
  21   1.0000      -0.375178       -10.2091
  22   1.0000      -0.330666        -8.9979
  23   1.0000      -0.303337        -8.2542
  24   1.0000      -0.296849        -8.0777
  25   1.0000      -0.243311        -6.6208
  26   0.0000      -0.115640        -3.1467
  27   0.0000      -0.006004        -0.1634
  28   0.0000       0.078560         2.1377
  29   0.0000       0.104638         2.8474
  30   0.0000       0.114304         3.1104

MULLIKEN ATOMIC CHARGES AND SPIN POPULATIONS
--------------------------------------------
   0 O :   -0.210181    0.995889
   1 O :   -0.342369    0.024282
   2 C :   -0.012726   -0.000286
   3 C :    0.077298   -0.001381
   4 C :    0.018325    0.006320
   5 C :   -0.134306   -0.001210
   6 C :    0.112406    0.000035
   7 H :    0.191590   -0.026117
   8 H :    0.058005    0.001799
   9 H :    0.052236    0.000757
  10 H :    0.037289   -0.000317
  11 H :    0.029732    0.000498
  12 H :    0.063459   -0.000205
  13 H :    0.059243   -0.000064
Sum of atomic charges         :   -0.0000000

LOEWDIN ATOMIC CHARGES AND SPIN POPULATIONS
-------------------------------------------
   0 O :   -0.085658    0.964573
   1 O :   -0.156453    0.025862
   2 C :    0.048489    0.001036
   3 C :    0.051016   -0.000279
   4 C :   -0.060286    0.004804
   5 C :   -0.001701   -0.000194
   6 C :   -0.047012   -0.000219
   7 H :    0.051981    0.002512
   8 H :    0.024730    0.001214
   9 H :    0.027350    0.000603
  10 H :    0.034247   -0.000003
  11 H :    0.024374    0.000280
  12 H :    0.043900   -0.000145
  13 H :    0.045025   -0.000043

  Mayer bond orders larger than 0.100000
B(  0-O ,  7-H ) :   0.9690 B(  1-O ,  2-C ) :   0.9380 B(  1-O ,  3-C ) :   0.9048
B(  2-C ,  3-C ) :   1.0099 B(  2-C ,  6-C ) :   0.9967 B(  2-C ,  8-H ) :   0.9718
B(  3-C ,  4-C ) :   0.9706 B(  3-C ,  9-H ) :   0.9824 B(  4-C ,  5-C ) :   1.8377
B(  4-C , 10-H ) :   0.9948 B(  5-C ,  6-C ) :   1.0208 B(  5-C , 11-H ) :   0.9659
B(  6-C , 12-H ) :   0.9237 B(  6-C , 13-H ) :   0.9244

Dispersion correction           -0.009675558
FINAL SINGLE POINT ENERGY      -344.363225636857
Dispersion correction            ... done

DIPOLE MOMENT
-------------
                                X             Y             Z
Electronic contribution:     -1.20787       0.64152       2.17520
Nuclear contribution   :      1.66792      -0.83448      -2.59799
                        -----------------------------------------
Total Dipole Moment    :      0.46005      -0.19296      -0.42279
                        -----------------------------------------
Magnitude (a.u.)       :      0.65394
Magnitude (Debye)      :      1.66217

Rotational constants in cm-1:     0.202889     0.062507     0.053820
Rotational constants in MHz :  6082.445853  1873.916689  1613.481688

                             ****ORCA TERMINATED NORMALLY****
TOTAL RUN TIME: 0 days 0 hours 1 minutes 59 seconds 512 msec
