                         Program Version 5.0.4 -  RELEASE  -
|  1> ! EnGrad PBE0 RIJCOSX D3BJ def2-SVP def2/J
|  2> %output
|  3> xyzfile=True
|  4> end
|  5> %scf
|  6> maxiter 250
|  7> end
|  8> %output
|  9> Print[P_Hirshfeld] = 1
| 10> end
| 11> % maxcore
| 12> 4000
| 13> *xyz 0 2
| 14> O   -2.59969443   0.69748820   1.89684314
| 15> O   -0.58349797  -0.38711087   0.93653337
| 16> C   -0.73036318   0.13949356  -0.43296354
| 17> C    0.15257317   0.86143113   0.52170545
| 18> C    1.54144795   0.46306936   0.23059372
| 19> C    1.53315788  -0.63252868  -0.65006787
| 20> C    0.12349506  -0.67412438  -1.34643865
| 21> H   -2.12002777  -0.13969780   2.16082451
| 22> H   -1.76753204   0.42898266  -0.62217128
| 23> H   -0.18963529   1.71167074   1.11409505
| 24> H    2.43279121   0.77157437   0.77601230
| 25> H    2.20767755  -1.29333495  -0.77412770
| 26> H    0.28814089  -0.25619777  -2.35349591
| 27> H   -0.28823573  -1.69026500  -1.45720307
| 28> *
| 29>
| 30>                          ****END OF INPUT****

CARTESIAN COORDINATES (ANGSTROEM)
---------------------------------
  O     -2.599694    0.697488    1.896843
  O     -0.583498   -0.387111    0.936533
  C     -0.730363    0.139494   -0.432964
  C      0.152573    0.861431    0.521705
  C      1.541448    0.463069    0.230594
  C      1.533158   -0.632529   -0.650068
  C      0.123495   -0.674124   -1.346439
  H     -2.120028   -0.139698    2.160825
  H     -1.767532    0.428983   -0.622171
  H     -0.189635    1.711671    1.114095
  H      2.432791    0.771574    0.776012
  H      2.207678   -1.293335   -0.774128
  H      0.288141   -0.256198   -2.353496
  H     -0.288236   -1.690265   -1.457203

 Total Charge           Charge          ....    0
 Multiplicity           Mult            ....    2
 Number of Electrons    NEL             ....   53
 Basis Dimension        Dim             ....  133

ORBITAL ENERGIES
----------------
                 SPIN UP ORBITALS
  NO   OCC          E(Eh)            E(eV)
   0   1.0000     -19.229493      -523.2611
   1   1.0000     -19.228421      -523.2319
   2   1.0000     -10.300265      -280.2845
   3   1.0000     -10.298569      -280.2383
   4   1.0000     -10.255778      -279.0739
   5   1.0000     -10.253519      -279.0124
   6   1.0000     -10.252633      -278.9883
   7   1.0000      -1.080844       -29.4113
   8   1.0000      -0.973128       -26.4802
   9   1.0000      -0.838299       -22.8113
  10   1.0000      -0.745609       -20.2891
  11   1.0000      -0.695125       -18.9153
  12   1.0000      -0.600425       -16.3384
  13   1.0000      -0.585491       -15.9320
  14   1.0000      -0.556287       -15.1373
  15   1.0000      -0.479651       -13.0520
  16   1.0000      -0.462391       -12.5823
  17   1.0000      -0.438127       -11.9220
  18   1.0000      -0.430618       -11.7177
  19   1.0000      -0.415163       -11.2972
  20   1.0000      -0.412259       -11.2181
  21   1.0000      -0.385377       -10.4866
  22   1.0000      -0.369194       -10.0463
  23   1.0000      -0.339497        -9.2382
  24   1.0000      -0.309300        -8.4165
  25   1.0000      -0.294532        -8.0146
  26   1.0000      -0.258252        -7.0274
  27   0.0000      -0.029333        -0.7982
  28   0.0000       0.077046         2.0965
  29   0.0000       0.090207         2.4546
  30   0.0000       0.107607         2.9281
  31   0.0000       0.111973         3.0469

                 SPIN DOWN ORBITALS
  NO   OCC          E(Eh)            E(eV)
   0   1.0000     -19.226761      -523.1868
   1   1.0000     -19.203240      -522.5467
   2   1.0000     -10.300297      -280.2853
   3   1.0000     -10.298587      -280.2388
   4   1.0000     -10.255790      -279.0742
   5   1.0000     -10.253503      -279.0120
   6   1.0000     -10.252587      -278.9871
   7   1.0000      -1.078388       -29.3444
   8   1.0000      -0.899189       -24.4682
   9   1.0000      -0.837351       -22.7855
  10   1.0000      -0.745592       -20.2886
  11   1.0000      -0.694350       -18.8942
  12   1.0000      -0.600156       -16.3311
  13   1.0000      -0.585215       -15.9245
  14   1.0000      -0.555007       -15.1025
  15   1.0000      -0.476634       -12.9699
  16   1.0000      -0.460957       -12.5433
  17   1.0000      -0.428843       -11.6694
  18   1.0000      -0.416806       -11.3419
  19   1.0000      -0.414403       -11.2765
  20   1.0000      -0.409792       -11.1510
  21   1.0000      -0.369498       -10.0546
  22   1.0000      -0.338695        -9.2164
  23   1.0000      -0.293500        -7.9865
  24   1.0000      -0.282550        -7.6886
  25   1.0000      -0.258323        -7.0293
  26   0.0000      -0.100029        -2.7219
  27   0.0000      -0.028978        -0.7885
  28   0.0000       0.079457         2.1621
  29   0.0000       0.091030         2.4771
  30   0.0000       0.108452         2.9511

MULLIKEN ATOMIC CHARGES AND SPIN POPULATIONS
--------------------------------------------
   0 O :   -0.242876    0.986482
   1 O :   -0.391055    0.039200
   2 C :    0.011355   -0.001891
   3 C :    0.077042   -0.002329
   4 C :    0.026862    0.001345
   5 C :   -0.042675    0.001493
   6 C :    0.066655   -0.000218
   7 H :    0.206656   -0.027502
   8 H :    0.072868    0.002361
   9 H :    0.066425    0.001291
  10 H :    0.041939   -0.000041
  11 H :   -0.035796   -0.000104
  12 H :    0.074930   -0.000049
  13 H :    0.067669   -0.000039
Sum of atomic charges         :    0.0000000

LOEWDIN ATOMIC CHARGES AND SPIN POPULATIONS
-------------------------------------------
   0 O :   -0.124972    0.958084
   1 O :   -0.214316    0.042262
   2 C :    0.074464   -0.000442
   3 C :    0.073238   -0.001310
   4 C :   -0.047079    0.000864
   5 C :    0.039498    0.001574
   6 C :   -0.045639   -0.000482
   7 H :    0.065066   -0.002693
   8 H :    0.032347    0.001379
   9 H :    0.033391    0.000769
  10 H :    0.032234    0.000033
  11 H :   -0.011012    0.000019
  12 H :    0.047567   -0.000021
  13 H :    0.045214   -0.000036

  Mayer bond orders larger than 0.100000
B(  0-O ,  7-H ) :   0.9497 B(  1-O ,  2-C ) :   0.9178 B(  1-O ,  3-C ) :   0.8761
B(  2-C ,  3-C ) :   1.0141 B(  2-C ,  6-C ) :   1.0065 B(  2-C ,  8-H ) :   0.9623
B(  3-C ,  4-C ) :   0.9954 B(  3-C ,  9-H ) :   0.9732 B(  4-C ,  5-C ) :   1.8022
B(  4-C , 10-H ) :   0.9930 B(  5-C ,  6-C ) :   1.0017 B(  5-C , 11-H ) :   1.0035
B(  6-C , 12-H ) :   0.9287 B(  6-C , 13-H ) :   0.9319

Dispersion correction           -0.009690831
FINAL SINGLE POINT ENERGY      -344.360550500359
Dispersion correction            ... done

DIPOLE MOMENT
-------------
                                X             Y             Z
Electronic contribution:     -1.01364       0.62109       2.00990
Nuclear contribution   :      1.73847      -0.85875      -2.64158
                        -----------------------------------------
Total Dipole Moment    :      0.72483      -0.23767      -0.63168
                        -----------------------------------------
Magnitude (a.u.)       :      0.99039
Magnitude (Debye)      :      2.51738

Rotational constants in cm-1:     0.202081     0.059513     0.051631
Rotational constants in MHz :  6058.239692  1784.153897  1547.846031

                             ****ORCA TERMINATED NORMALLY****
TOTAL RUN TIME: 0 days 0 hours 1 minutes 52 seconds 399 msec
