                         Program Version 5.0.4 -  RELEASE  -
|  1> ! EnGrad PBE0 RIJCOSX D3BJ def2-SVP def2/J
|  2> %output
|  3> xyzfile=True
|  4> end
|  5> %scf
|  6> maxiter 250
|  7> end
|  8> %output
|  9> Print[P_Hirshfeld] = 1
| 10> end
| 11> % maxcore
| 12> 4000
| 13> *xyz 0 2
| 14> O   -2.59648392   0.69263028   1.89813759
| 15> O   -0.57931746  -0.37794275   0.92603708
| 16> C   -0.72860999   0.13690884  -0.42137061
| 17> C    0.14681314   0.85310737   0.52282358
| 18> C    1.54469802   0.44549003   0.22049774
| 19> C    1.48705971  -0.58369308  -0.63447034
| 20> C    0.13344132  -0.67829861  -1.34405855
| 21> H   -2.12427505  -0.13413593   2.16011550
| 22> H   -1.76664285   0.43011403  -0.62420269
| 23> H   -0.18840283   1.71285546   1.11296758
| 24> H    2.43227381   0.77229452   0.77728816
| 25> H    2.24178184  -1.32289203  -0.78227729
| 26> H    0.28560271  -0.25560082  -2.35388844
| 27> H   -0.28758355  -1.69040628  -1.45748261
| 28> *
| 29>
| 30>                          ****END OF INPUT****

CARTESIAN COORDINATES (ANGSTROEM)
---------------------------------
  O     -2.596484    0.692630    1.898138
  O     -0.579317   -0.377943    0.926037
  C     -0.728610    0.136909   -0.421371
  C      0.146813    0.853107    0.522824
  C      1.544698    0.445490    0.220498
  C      1.487060   -0.583693   -0.634470
  C      0.133441   -0.678299   -1.344059
  H     -2.124275   -0.134136    2.160115
  H     -1.766643    0.430114   -0.624203
  H     -0.188403    1.712855    1.112968
  H      2.432274    0.772295    0.777288
  H      2.241782   -1.322892   -0.782277
  H      0.285603   -0.255601   -2.353888
  H     -0.287584   -1.690406   -1.457483

 Total Charge           Charge          ....    0
 Multiplicity           Mult            ....    2
 Number of Electrons    NEL             ....   53
 Basis Dimension        Dim             ....  133

ORBITAL ENERGIES
----------------
                 SPIN UP ORBITALS
  NO   OCC          E(Eh)            E(eV)
   0   1.0000     -19.230291      -523.2828
   1   1.0000     -19.228672      -523.2388
   2   1.0000     -10.297495      -280.2091
   3   1.0000     -10.295863      -280.1647
   4   1.0000     -10.253007      -278.9985
   5   1.0000     -10.250381      -278.9271
   6   1.0000     -10.245233      -278.7870
   7   1.0000      -1.094858       -29.7926
   8   1.0000      -0.977920       -26.6106
   9   1.0000      -0.847560       -23.0633
  10   1.0000      -0.746694       -20.3186
  11   1.0000      -0.687832       -18.7169
  12   1.0000      -0.599522       -16.3138
  13   1.0000      -0.572129       -15.5684
  14   1.0000      -0.558663       -15.2020
  15   1.0000      -0.480546       -13.0763
  16   1.0000      -0.463107       -12.6018
  17   1.0000      -0.441376       -12.0104
  18   1.0000      -0.422050       -11.4846
  19   1.0000      -0.420926       -11.4540
  20   1.0000      -0.408890       -11.1265
  21   1.0000      -0.388301       -10.5662
  22   1.0000      -0.372378       -10.1329
  23   1.0000      -0.339832        -9.2473
  24   1.0000      -0.311054        -8.4642
  25   1.0000      -0.293750        -7.9934
  26   1.0000      -0.264731        -7.2037
  27   0.0000      -0.014962        -0.4071
  28   0.0000       0.075089         2.0433
  29   0.0000       0.096700         2.6313
  30   0.0000       0.106878         2.9083
  31   0.0000       0.113821         3.0972

                 SPIN DOWN ORBITALS
  NO   OCC          E(Eh)            E(eV)
   0   1.0000     -19.227065      -523.1951
   1   1.0000     -19.204029      -522.5682
   2   1.0000     -10.297524      -280.2099
   3   1.0000     -10.295877      -280.1651
   4   1.0000     -10.253017      -278.9988
   5   1.0000     -10.250336      -278.9258
   6   1.0000     -10.245216      -278.7865
   7   1.0000      -1.092534       -29.7294
   8   1.0000      -0.904156       -24.6033
   9   1.0000      -0.846639       -23.0382
  10   1.0000      -0.746667       -20.3178
  11   1.0000      -0.687010       -18.6945
  12   1.0000      -0.599347       -16.3091
  13   1.0000      -0.571745       -15.5580
  14   1.0000      -0.557217       -15.1626
  15   1.0000      -0.477145       -12.9838
  16   1.0000      -0.462372       -12.5818
  17   1.0000      -0.422551       -11.4982
  18   1.0000      -0.419343       -11.4109
  19   1.0000      -0.415385       -11.3032
  20   1.0000      -0.408650       -11.1199
  21   1.0000      -0.374615       -10.1938
  22   1.0000      -0.339076        -9.2267
  23   1.0000      -0.292603        -7.9621
  24   1.0000      -0.284278        -7.7356
  25   1.0000      -0.264884        -7.2079
  26   0.0000      -0.101613        -2.7650
  27   0.0000      -0.014648        -0.3986
  28   0.0000       0.076815         2.0903
  29   0.0000       0.098530         2.6811
  30   0.0000       0.107070         2.9135

MULLIKEN ATOMIC CHARGES AND SPIN POPULATIONS
--------------------------------------------
   0 O :   -0.234562    0.986875
   1 O :   -0.380514    0.037342
   2 C :    0.002746   -0.001486
   3 C :    0.068658   -0.002059
   4 C :    0.034255    0.001416
   5 C :   -0.120846    0.001277
   6 C :    0.081124   -0.000236
   7 H :    0.201109   -0.026610
   8 H :    0.069880    0.002394
   9 H :    0.064253    0.001339
  10 H :    0.041238   -0.000049
  11 H :    0.033206   -0.000128
  12 H :    0.073341   -0.000040
  13 H :    0.066111   -0.000035
Sum of atomic charges         :   -0.0000000

LOEWDIN ATOMIC CHARGES AND SPIN POPULATIONS
-------------------------------------------
   0 O :   -0.114296    0.957407
   1 O :   -0.198459    0.040508
   2 C :    0.066408   -0.000143
   3 C :    0.069637   -0.001058
   4 C :   -0.055596    0.000961
   5 C :    0.004977    0.001424
   6 C :   -0.048216   -0.000455
   7 H :    0.057607   -0.000779
   8 H :    0.030391    0.001401
   9 H :    0.031984    0.000793
  10 H :    0.035970    0.000026
  11 H :    0.025343   -0.000040
  12 H :    0.048676   -0.000011
  13 H :    0.045576   -0.000035

  Mayer bond orders larger than 0.100000
B(  0-O ,  7-H ) :   0.9561 B(  1-O ,  2-C ) :   0.9251 B(  1-O ,  3-C ) :   0.8838
B(  2-C ,  3-C ) :   1.0201 B(  2-C ,  6-C ) :   1.0028 B(  2-C ,  8-H ) :   0.9609
B(  3-C ,  4-C ) :   0.9825 B(  3-C ,  9-H ) :   0.9719 B(  4-C ,  5-C ) :   1.8222
B(  4-C , 10-H ) :   0.9936 B(  5-C ,  6-C ) :   1.0113 B(  5-C , 11-H ) :   0.9761
B(  6-C , 12-H ) :   0.9271 B(  6-C , 13-H ) :   0.9301

Dispersion correction           -0.009688458
FINAL SINGLE POINT ENERGY      -344.385588706923
Dispersion correction            ... done

DIPOLE MOMENT
-------------
                                X             Y             Z
Electronic contribution:     -1.08447       0.65424       2.05814
Nuclear contribution   :      1.78598      -0.89407      -2.65832
                        -----------------------------------------
Total Dipole Moment    :      0.70150      -0.23983      -0.60019
                        -----------------------------------------
Magnitude (a.u.)       :      0.95386
Magnitude (Debye)      :      2.42452

Rotational constants in cm-1:     0.205871     0.060159     0.052111
Rotational constants in MHz :  6171.858217  1803.514215  1562.258303

                             ****ORCA TERMINATED NORMALLY****
TOTAL RUN TIME: 0 days 0 hours 1 minutes 43 seconds 714 msec
