                         Program Version 5.0.4 -  RELEASE  -
|  1> ! LooseOpt PBE0 RIJCOSX D3BJ def2-SVP def2/J
|  2> %geom MaxIter 10 end
|  3> %output
|  4> xyzfile=True
|  5> end
|  6> %scf
|  7> maxiter 250
|  8> end
|  9> %output
| 10> Print[P_Hirshfeld] = 1
| 11> end
| 12> % maxcore
| 13> 4000
| 14> %pal nprocs 8
| 15> end
| 16> *xyz 0 1
| 17> C    1.07643096  -0.77767985  -0.18379474
| 18> C    1.23104714   0.52990682  -0.02712084
| 19> C   -0.20963572   1.02332834  -0.19527156
| 20> C   -0.95326928   0.02722709   0.71623867
| 21> C   -0.43408421  -0.87342759  -0.42186965
| 22> O   -0.64296490   0.23412138  -1.32337413
| 23> H    1.77127964  -1.59142719  -0.17410277
| 24> H    2.09384076   1.13669926   0.15296526
| 25> H   -0.42803189   2.08326756  -0.24973073
| 26> H   -2.03248320   0.15730803   0.69544505
| 27> H   -0.58360481  -0.13703887   1.72540583
| 28> H   -0.88862448  -1.81238498  -0.71499038
| 29> *
| 30>
| 31>                          ****END OF INPUT****
 Total Charge           Charge          ....    0
 Multiplicity           Mult            ....    1
 Number of Electrons    NEL             ....   44
Dispersion correction           -0.008321805
FINAL SINGLE POINT ENERGY      -268.759159835860
Dispersion correction            ... done
Dispersion correction           -0.008295495
FINAL SINGLE POINT ENERGY      -268.760796575861
Dispersion correction            ... done
Dispersion correction           -0.008293564
FINAL SINGLE POINT ENERGY      -268.760868371316
Dispersion correction            ... done
                    ***********************HURRAY********************

CARTESIAN COORDINATES (ANGSTROEM)
---------------------------------
  C      1.085563   -0.783637   -0.194895
  C      1.241638    0.535930   -0.037054
  C     -0.208493    1.019037   -0.192379
  C     -0.967251    0.027662    0.726151
  C     -0.431874   -0.870250   -0.418188
  O     -0.667088    0.236929   -1.320472
  H      1.803640   -1.602593   -0.178508
  H      2.128068    1.140787    0.149628
  H     -0.428335    2.093428   -0.250301
  H     -2.058101    0.161741    0.681882
  H     -0.606715   -0.137476    1.752084
  H     -0.891152   -1.821658   -0.718148

 Multiplicity           Mult            ....    1
 Number of Electrons    NEL             ....   44
 Basis Dimension        Dim             ....  114

ORBITAL ENERGIES
----------------

  NO   OCC          E(Eh)            E(eV)
   0   2.0000     -19.200683      -522.4771
   1   2.0000     -10.293587      -280.1027
   2   2.0000     -10.293547      -280.1016
   3   2.0000     -10.244498      -278.7670
   4   2.0000     -10.239757      -278.6379
   5   2.0000     -10.238891      -278.6144
   6   2.0000      -1.086082       -29.5538
   7   2.0000      -0.827301       -22.5120
   8   2.0000      -0.731420       -19.9029
   9   2.0000      -0.711010       -19.3476
  10   2.0000      -0.568879       -15.4800
  11   2.0000      -0.557019       -15.1573
  12   2.0000      -0.549178       -14.9439
  13   2.0000      -0.489508       -13.3202
  14   2.0000      -0.436216       -11.8700
  15   2.0000      -0.433333       -11.7916
  16   2.0000      -0.411402       -11.1948
  17   2.0000      -0.370677       -10.0866
  18   2.0000      -0.351715        -9.5706
  19   2.0000      -0.344921        -9.3858
  20   2.0000      -0.271450        -7.3865
  21   2.0000      -0.253849        -6.9076
  22   0.0000      -0.003072        -0.0836
  23   0.0000       0.080976         2.2035
  24   0.0000       0.112515         3.0617
  25   0.0000       0.116512         3.1705
  26   0.0000       0.121075         3.2946

MULLIKEN ATOMIC CHARGES
-----------------------
   0 C :    0.000663
   1 C :    0.000619
   2 C :    0.065133
   3 C :    0.015265
   4 C :    0.064714
   5 O :   -0.374104
   6 H :    0.029905
   7 H :    0.029611
   8 H :    0.031093
   9 H :    0.054921
  10 H :    0.051016
  11 H :    0.031164
Sum of atomic charges:    0.0000000

LOEWDIN ATOMIC CHARGES
----------------------
   0 C :   -0.033464
   1 C :   -0.033413
   2 C :    0.076424
   3 C :   -0.028940
   4 C :    0.076496
   5 O :   -0.198562
   6 H :    0.029075
   7 H :    0.029014
   8 H :    0.016546
   9 H :    0.029212
  10 H :    0.021057
  11 H :    0.016555

  Mayer bond orders larger than 0.100000
B(  0-C ,  1-C ) :   1.8129 B(  0-C ,  4-C ) :   0.9168 B(  0-C ,  6-H ) :   1.0155
B(  1-C ,  2-C ) :   0.9171 B(  1-C ,  7-H ) :   1.0154 B(  2-C ,  3-C ) :   0.9968
B(  2-C ,  5-O ) :   0.9388 B(  2-C ,  8-H ) :   0.9771 B(  3-C ,  4-C ) :   0.9967
B(  3-C ,  9-H ) :   0.9365 B(  3-C , 10-H ) :   0.9527 B(  4-C ,  5-O ) :   0.9387
B(  4-C , 11-H ) :   0.9771

Dispersion correction           -0.008293207
FINAL SINGLE POINT ENERGY      -268.760900939043

DIPOLE MOMENT
-------------
                                X             Y             Z
Electronic contribution:      0.10852       0.23488      -2.07054
Nuclear contribution   :      0.08397      -0.34227       2.77708
                        -----------------------------------------
Total Dipole Moment    :      0.19249      -0.10740       0.70654
                        -----------------------------------------
Magnitude (a.u.)       :      0.74012
Magnitude (Debye)      :      1.88124

Rotational constants in cm-1:     0.209934     0.162838     0.149843
Rotational constants in MHz :  6293.656045  4881.750438  4492.165267

                             ****ORCA TERMINATED NORMALLY****
TOTAL RUN TIME: 0 days 0 hours 0 minutes 21 seconds 837 msec
