   * xtb version 6.6.1 (8d0f1dd) compiled by 'conda@1efc2f54142f' on 2023-08-01
          program call               : /gpfs/fs1/home/copan/code/autode-practice/.pixi/envs/default/bin/xtb p0_C5H6O_conf0_opt_xtb.xyz --chrg 0 --uhf 0 --opt

   ID    Z sym.   atoms
    1    6 C      1-5
    2    8 O      6
    3    1 H      7-12

          :  Hamiltonian                  GFN2-xTB          :
 * total energy  :   -17.7270053 Eh     change       -0.4763479E-10 Eh
 * total energy  :   -17.7376738 Eh     change       -0.1066851E-01 Eh
 * total energy  :   -17.7394451 Eh     change       -0.1771316E-02 Eh
 * total energy  :   -17.7396479 Eh     change       -0.2027988E-03 Eh
 * total energy  :   -17.7396867 Eh     change       -0.3882326E-04 Eh
 * total energy  :   -17.7396898 Eh     change       -0.3040956E-05 Eh
   *** GEOMETRY OPTIMIZATION CONVERGED AFTER 6 ITERATIONS ***

 final structure:
================
12
 xtb: 6.6.1 (8d0f1dd)
C            1.07643095540597       -0.77767985323068       -0.18379474186768
C            1.23104713538422        0.52990681835015       -0.02712084030588
C           -0.20963572404781        1.02332834111018       -0.19527156311376
C           -0.95326927859543        0.02722709146341        0.71623867089673
C           -0.43408420744561       -0.87342758573193       -0.42186964816966
O           -0.64296489565105        0.23412137944731       -1.32337412866270
H            1.77127964230375       -1.59142718982681       -0.17410277144270
H            2.09384075762918        1.13669926089753        0.15296526219877
H           -0.42803189295818        2.08326755541135       -0.24973073431833
H           -2.03248319839135        0.15730802879168        0.69544505000601
H           -0.58360481344754       -0.13703887139755        1.72540582666138
H           -0.88862448018615       -1.81238497528464       -0.71499038188217

          :  Hamiltonian                  GFN2-xTB          :
         :: total energy             -17.739689761220 Eh    ::
         :: gradient norm              0.000610436332 Eh/a0 ::
         :: HOMO-LUMO gap              4.635770881927 eV    ::
         :: SCC energy               -17.962040468661 Eh    ::
         :: -> dispersion             -0.007163785259 Eh    ::
         :: repulsion energy           0.222346034366 Eh    ::

    * Orbital Energies and Occupations

         #    Occupation            Energy/Eh            Energy/eV
      -------------------------------------------------------------
         1        2.0000           -0.7074014             -19.2494
       ...           ...                  ...                  ...
         4        2.0000           -0.6255403             -17.0218
         5        2.0000           -0.5748365             -15.6421
         6        2.0000           -0.5667139             -15.4211
         7        2.0000           -0.5546230             -15.0921
         8        2.0000           -0.5431258             -14.7792
         9        2.0000           -0.5264285             -14.3248
        10        2.0000           -0.5071661             -13.8007
        11        2.0000           -0.4835602             -13.1583
        12        2.0000           -0.4576925             -12.4544
        13        2.0000           -0.4558180             -12.4034
        14        2.0000           -0.4511988             -12.2777
        15        2.0000           -0.4050810             -11.0228
        16        2.0000           -0.4016767             -10.9302 (HOMO)
        17                         -0.2313152              -6.2944 (LUMO)
        18                         -0.0006748              -0.0184
        19                         -0.0001289              -0.0035
        20                          0.0341186               0.9284
        21                          0.0465988               1.2680
        22                          0.0633246               1.7232
        23                          0.0992505               2.7007
        24                          0.1475325               4.0146
        25                          0.2039815               5.5506
        26                          0.2474708               6.7340
        27                          0.2616192               7.1190
       ...                                ...                  ...
        30                          0.6970530              18.9678
      -------------------------------------------------------------
                  HL-Gap            0.1703614 Eh            4.6358 eV

     #   Z          covCN         q      C6AA      α(0)
     1   6 C        3.039    -0.043    29.035     8.838
     2   6 C        3.039    -0.043    29.035     8.838
     3   6 C        4.491     0.114    18.640     6.131
     4   6 C        3.927    -0.064    21.665     6.615
     5   6 C        4.491     0.114    18.640     6.131
     6   8 O        1.776    -0.333    19.559     5.972
     7   1 H        0.927     0.047     2.352     2.398
     8   1 H        0.927     0.047     2.352     2.398
     9   1 H        0.925     0.039     2.463     2.454
    10   1 H        0.925     0.051     2.308     2.376
    11   1 H        0.925     0.032     2.557     2.500
    12   1 H        0.925     0.039     2.463     2.454

Wiberg/Mayer (AO) data.
largest (>0.10) Wiberg bond orders for each atom

     #   Z sym  total        # sym  WBO       # sym  WBO       # sym  WBO
 ---------------------------------------------------------------------------
     1   6 C    3.984 --     2 C    1.955     5 C    0.980     7 H    0.972
     2   6 C    3.984 --     1 C    1.955     3 C    0.980     8 H    0.972
     3   6 C    3.942 --     2 C    0.980     4 C    0.977     9 H    0.969
                             6 O    0.957
     4   6 C    3.986 --    11 H    0.980    10 H    0.978     5 C    0.977
                             3 C    0.977
     5   6 C    3.942 --     1 C    0.980     4 C    0.977    12 H    0.969
                             6 O    0.957
     6   8 O    2.026 --     5 C    0.957     3 C    0.957
     7   1 H    0.998 --     1 C    0.972
     8   1 H    0.998 --     2 C    0.972
     9   1 H    0.998 --     3 C    0.969
    10   1 H    0.997 --     4 C    0.978
    11   1 H    0.999 --     4 C    0.980
    12   1 H    0.998 --     5 C    0.969
 ---------------------------------------------------------------------------

molecular dipole:
                 x           y           z       tot (Debye)
 q only:        0.211      -0.112       0.728
   full:        0.200      -0.119       0.798       2.112

           -------------------------------------------------
          | TOTAL ENERGY              -17.739689761220 Eh   |
          | GRADIENT NORM               0.000610436332 Eh/α |
          | HOMO-LUMO GAP               4.635770881927 eV   |
           -------------------------------------------------

 * finished run on 2025/05/23 at 12:04:30.277
