   * xtb version 6.6.1 (8d0f1dd) compiled by 'conda@1efc2f54142f' on 2023-08-01
          program call               : /gpfs/fs1/home/copan/code/autode-practice/.pixi/envs/default/bin/xtb r0_C5H7O2_conf0_opt_xtb.xyz --chrg 0 --uhf 1 --opt

   ID    Z sym.   atoms
    1    8 O      1, 2
    2    6 C      3-7
    3    1 H      8-14

          :  Hamiltonian                  GFN2-xTB          :
 * total energy  :   -22.1797151 Eh     change       -0.2790692E-09 Eh
 * total energy  :   -22.1990166 Eh     change       -0.1930152E-01 Eh
 * total energy  :   -22.2091140 Eh     change       -0.1009739E-01 Eh
 * total energy  :   -22.2160070 Eh     change       -0.6892974E-02 Eh
 * total energy  :   -22.2226136 Eh     change       -0.6606571E-02 Eh
 * total energy  :   -22.2286287 Eh     change       -0.6015176E-02 Eh
 * total energy  :   -22.2299720 Eh     change       -0.1343305E-02 Eh
 * total energy  :   -22.2355199 Eh     change       -0.5547884E-02 Eh
 * total energy  :   -22.2377938 Eh     change       -0.2273872E-02 Eh
 * total energy  :   -22.2407239 Eh     change       -0.2930150E-02 Eh
 * total energy  :   -22.2475876 Eh     change       -0.2933099E-03 Eh
 * total energy  :   -22.2476950 Eh     change       -0.1073543E-03 Eh
 * total energy  :   -22.2478596 Eh     change       -0.1646521E-03 Eh
 * total energy  :   -22.2479247 Eh     change       -0.6508907E-04 Eh
 * total energy  :   -22.2479536 Eh     change       -0.2892803E-04 Eh
 * total energy  :   -22.2479739 Eh     change       -0.2025267E-04 Eh
 * total energy  :   -22.2479834 Eh     change       -0.9524446E-05 Eh
 * total energy  :   -22.2479907 Eh     change       -0.7334343E-05 Eh
 * total energy  :   -22.2479930 Eh     change       -0.2275263E-05 Eh
   *** GEOMETRY OPTIMIZATION CONVERGED AFTER 28 ITERATIONS ***

 final structure:
================
14
 xtb: 6.6.1 (8d0f1dd)
O            2.50444115003409       -0.72610555074914        0.83682491874693
O            1.68833452170922        0.35318593934419        0.36542026658051
C            0.33051591033165        0.06708707534520        0.62043164027355
C           -0.46176196986383        1.29648925706214        0.30375545411809
C           -1.44263839583320        1.00222947697899       -0.61663820187632
C           -1.39849856769227       -0.32232398546516       -0.98646784325391
C           -0.27308769811734       -1.01707052018671       -0.30156154407637
H            3.38817583742787       -0.34110354216370        0.78688452296674
H            0.23500520844948       -0.21607809193090        1.68192896466349
H           -0.24144977932325        2.25027895011349        0.74028520225280
H           -2.15310616478799        1.71886334438853       -0.99111491853368
H           -2.05648440056788       -0.81566294207316       -1.67695396511828
H           -0.60431446405511       -1.89764204462225        0.25290317231173
H            0.48466881228872       -1.35214736604157       -1.01569766905529

          :  Hamiltonian                  GFN2-xTB          :
         :: total energy             -22.247993019149 Eh    ::
         :: gradient norm              0.000510640078 Eh/a0 ::
         :: HOMO-LUMO gap              3.672724554583 eV    ::
         :: SCC energy               -22.496556658513 Eh    ::
         :: -> dispersion             -0.008639471017 Eh    ::
         :: repulsion energy           0.248552616258 Eh    ::

    * Orbital Energies and Occupations

         #    Occupation            Energy/Eh            Energy/eV
      -------------------------------------------------------------
         1        2.0000           -0.7175335             -19.5251
       ...           ...                  ...                  ...
         8        2.0000           -0.5684488             -15.4683
         9        2.0000           -0.5467815             -14.8787
        10        2.0000           -0.5414038             -14.7323
        11        2.0000           -0.5189652             -14.1218
        12        2.0000           -0.5110081             -13.9052
        13        2.0000           -0.4779352             -13.0053
        14        2.0000           -0.4639053             -12.6235
        15        2.0000           -0.4590188             -12.4905
        16        2.0000           -0.4547761             -12.3751
        17        2.0000           -0.4505897             -12.2612
        18        2.0000           -0.4323109             -11.7638
        19        2.0000           -0.4040320             -10.9943
        20        1.0000           -0.3165662              -8.6142 (HOMO)
        21                         -0.1815961              -4.9415 (LUMO)
        22                         -0.1458431              -3.9686
        23                          0.0639350               1.7398
        24                          0.0806297               2.1940
        25                          0.1144750               3.1150
        26                          0.1314945               3.5781
        27                          0.1421058               3.8669
        28                          0.1452918               3.9536
        29                          0.1616895               4.3998
        30                          0.2088897               5.6842
        31                          0.2442218               6.6456
       ...                                ...                  ...
        35                          0.6194240              16.8554
      -------------------------------------------------------------
                  HL-Gap            0.1349701 Eh            3.6727 eV

     #   Z          covCN         q      C6AA      α(0)
     1   8 O        1.730    -0.332    19.555     5.971
     2   8 O        1.774    -0.216    17.570     5.660
     3   6 C        3.773     0.127    18.550     6.137
     4   6 C        2.975    -0.058    29.424     8.898
     5   6 C        2.945    -0.028    28.711     8.788
     6   6 C        2.976    -0.043    29.066     8.844
     7   6 C        3.845    -0.069    21.792     6.640
     8   1 H        0.805     0.318     0.668     1.284
     9   1 H        0.923     0.045     2.378     2.412
    10   1 H        0.926     0.046     2.364     2.404
    11   1 H        0.926     0.041     2.431     2.438
    12   1 H        0.926     0.039     2.455     2.450
    13   1 H        0.924     0.053     2.279     2.361
    14   1 H        0.924     0.075     2.030     2.228

Wiberg/Mayer (AO) data.
largest (>0.10) Wiberg bond orders for each atom

     #   Z sym  total        # sym  WBO       # sym  WBO       # sym  WBO
 ---------------------------------------------------------------------------
     1   8 O    1.904 --     2 O    0.965     8 H    0.892
     2   8 O    2.012 --     3 C    0.967     1 O    0.965
     3   6 C    3.940 --     4 C    1.008     7 C    0.978     2 O    0.967
                             9 H    0.937
     4   6 C    3.780 --     5 C    1.483     3 C    1.008    10 H    0.973
                             6 C    0.205
     5   6 C    3.991 --     4 C    1.483     6 C    1.479    11 H    0.968
     6   6 C    3.790 --     5 C    1.479     7 C    1.057    12 H    0.974
                             4 C    0.205
     7   6 C    3.997 --     6 C    1.057     3 C    0.978    13 H    0.954
                            14 H    0.942
     8   1 H    0.899 --     1 O    0.892
     9   1 H    0.997 --     3 C    0.937
    10   1 H    0.998 --     4 C    0.973
    11   1 H    0.997 --     5 C    0.968
    12   1 H    0.998 --     6 C    0.974
    13   1 H    0.997 --     7 C    0.954
    14   1 H    0.994 --     7 C    0.942
 ---------------------------------------------------------------------------

molecular dipole:
                 x           y           z       tot (Debye)
 q only:       -0.180      -0.044      -0.044
   full:       -0.030      -0.020       0.008       0.095

           -------------------------------------------------
          | TOTAL ENERGY              -22.247993019149 Eh   |
          | GRADIENT NORM               0.000510640078 Eh/α |
          | HOMO-LUMO GAP               3.672724554583 eV   |
           -------------------------------------------------

 * finished run on 2025/05/23 at 12:03:01.598
