                         Program Version 5.0.4 -  RELEASE  -
|  1> ! LooseOpt PBE0 RIJCOSX D3BJ def2-SVP def2/J
|  2> %geom MaxIter 10 end
|  3> %output
|  4> xyzfile=True
|  5> end
|  6> %scf
|  7> maxiter 250
|  8> end
|  9> %output
| 10> Print[P_Hirshfeld] = 1
| 11> end
| 12> % maxcore
| 13> 4000
| 14> %pal nprocs 8
| 15> end
| 16> *xyz 0 2
| 17> O   -2.59336633  -0.52874523   0.71420397
| 18> O   -1.35377423   0.06691175   1.11930204
| 19> C   -0.59250018   0.39776819  -0.02288531
| 20> C    0.57424545   1.21540636   0.43452653
| 21> C    1.75207190   0.61873068   0.04399032
| 22> C    1.51551688  -0.54893203  -0.64428935
| 23> C    0.05288538  -0.81831492  -0.72639702
| 24> H   -3.04670099  -0.62960921   1.56061432
| 25> H   -1.24320743   0.95988288  -0.71214331
| 26> H    0.45690987   2.11330032   1.00806213
| 27> H    2.72916229   1.02141461   0.24809229
| 28> H    2.25494497  -1.20320949  -1.06634322
| 29> H   -0.28794843  -0.92781567  -1.75836713
| 30> H   -0.21823915  -1.73668824  -0.19836626
| 31> *
| 32>
| 33>                          ****END OF INPUT****
 Total Charge           Charge          ....    0
 Multiplicity           Mult            ....    2
 Number of Electrons    NEL             ....   53
 Basis Dimension        Dim             ....  133

ORBITAL ENERGIES
----------------
                 SPIN UP ORBITALS
  NO   OCC          E(Eh)            E(eV)
   0   1.0000     -19.254318      -523.9366
   1   1.0000     -19.251036      -523.8473
   2   1.0000     -10.284013      -279.8422
   3   1.0000     -10.240707      -278.6638
   4   1.0000     -10.238803      -278.6120
   5   1.0000     -10.234361      -278.4911
   6   1.0000     -10.229209      -278.3509
   7   1.0000      -1.135480       -30.8980
   8   1.0000      -0.935207       -25.4483
   9   1.0000      -0.864457       -23.5231
  10   1.0000      -0.733837       -19.9687
  11   1.0000      -0.709044       -19.2941
  12   1.0000      -0.587922       -15.9982
  13   1.0000      -0.564643       -15.3647
  14   1.0000      -0.539184       -14.6719
  15   1.0000      -0.532831       -14.4991
  16   1.0000      -0.493582       -13.4310
  17   1.0000      -0.442063       -12.0291
  18   1.0000      -0.419804       -11.4234
  19   1.0000      -0.408097       -11.1049
  20   1.0000      -0.388355       -10.5677
  21   1.0000      -0.384603       -10.4656
  22   1.0000      -0.360447        -9.8083
  23   1.0000      -0.340306        -9.2602
  24   1.0000      -0.328590        -8.9414
  25   1.0000      -0.246384        -6.7045
  26   1.0000      -0.196783        -5.3547
  27   0.0000       0.028290         0.7698
  28   0.0000       0.062920         1.7121
  29   0.0000       0.085206         2.3186
  30   0.0000       0.098595         2.6829
  31   0.0000       0.117759         3.2044

                 SPIN DOWN ORBITALS
  NO   OCC          E(Eh)            E(eV)
   0   1.0000     -19.253546      -523.9156
   1   1.0000     -19.250824      -523.8415
   2   1.0000     -10.284680      -279.8604
   3   1.0000     -10.238408      -278.6013
   4   1.0000     -10.230546      -278.3873
   5   1.0000     -10.229790      -278.3667
   6   1.0000     -10.228778      -278.3392
   7   1.0000      -1.134284       -30.8654
   8   1.0000      -0.932207       -25.3666
   9   1.0000      -0.855444       -23.2778
  10   1.0000      -0.726609       -19.7720
  11   1.0000      -0.696091       -18.9416
  12   1.0000      -0.579313       -15.7639
  13   1.0000      -0.559679       -15.2296
  14   1.0000      -0.531553       -14.4643
  15   1.0000      -0.531027       -14.4500
  16   1.0000      -0.490110       -13.3366
  17   1.0000      -0.439294       -11.9538
  18   1.0000      -0.411240       -11.1904
  19   1.0000      -0.402461       -10.9515
  20   1.0000      -0.384824       -10.4716
  21   1.0000      -0.380450       -10.3526
  22   1.0000      -0.356406        -9.6983
  23   1.0000      -0.337996        -9.1973
  24   1.0000      -0.302180        -8.2227
  25   1.0000      -0.245286        -6.6746
  26   0.0000      -0.060294        -1.6407
  27   0.0000       0.040808         1.1104
  28   0.0000       0.071401         1.9429
  29   0.0000       0.089915         2.4467
  30   0.0000       0.104609         2.8465

MULLIKEN ATOMIC CHARGES AND SPIN POPULATIONS
--------------------------------------------
   0 O :   -0.166310    0.008048
   1 O :   -0.283314    0.009683
   2 C :    0.135425   -0.049916
   3 C :   -0.060297    0.696194
   4 C :    0.010186   -0.315546
   5 C :   -0.111452    0.698983
   6 C :    0.061218   -0.062769
   7 H :    0.189888   -0.000239
   8 H :    0.039514    0.026229
   9 H :    0.028961   -0.033238
  10 H :    0.020088    0.010647
  11 H :    0.025652   -0.034063
  12 H :    0.051196    0.020764
  13 H :    0.059243    0.025222
Sum of atomic charges         :   -0.0000000

LOEWDIN ATOMIC CHARGES AND SPIN POPULATIONS
-------------------------------------------
   0 O :   -0.072844    0.006397
   1 O :   -0.101840    0.016001
   2 C :    0.047398   -0.001048
   3 C :   -0.025256    0.542575
   4 C :   -0.040310   -0.165755
   5 C :   -0.011918    0.548759
   6 C :   -0.051697   -0.007820
   7 H :    0.077006    0.000157
   8 H :    0.020519    0.022247
   9 H :    0.023564    0.000109
  10 H :    0.030865   -0.000052
  11 H :    0.020679    0.000181
  12 H :    0.037828    0.018080
  13 H :    0.046005    0.020169

  Mayer bond orders larger than 0.100000
B(  0-O ,  1-O ) :   0.9243 B(  0-O ,  7-H ) :   0.9724 B(  1-O ,  2-C ) :   0.9283
B(  2-C ,  3-C ) :   1.0299 B(  2-C ,  6-C ) :   1.0406 B(  2-C ,  8-H ) :   0.9127
B(  3-C ,  4-C ) :   1.3965 B(  3-C ,  5-C ) :   0.1324 B(  3-C ,  9-H ) :   0.9936
B(  4-C ,  5-C ) :   1.4129 B(  4-C , 10-H ) :   1.0015 B(  5-C ,  6-C ) :   1.0405
B(  5-C , 11-H ) :   0.9918 B(  6-C , 12-H ) :   0.9293 B(  6-C , 13-H ) :   0.9115

Dispersion correction           -0.009845935
FINAL SINGLE POINT ENERGY      -344.393979180570
Dispersion correction            ... done
Dispersion correction           -0.009866740
FINAL SINGLE POINT ENERGY      -344.396256217178
Dispersion correction            ... done
Dispersion correction           -0.009870527
FINAL SINGLE POINT ENERGY      -344.396376645286
Dispersion correction            ... done
FINAL SINGLE POINT ENERGY      -344.396423263279
FINAL SINGLE POINT ENERGY      -344.396446607591
FINAL SINGLE POINT ENERGY      -344.396507444790
FINAL SINGLE POINT ENERGY      -344.396570593608
Dispersion correction           -0.009928937
FINAL SINGLE POINT ENERGY      -344.396689935738
Dispersion correction            ... done
Dispersion correction           -0.009953143
FINAL SINGLE POINT ENERGY      -344.396814440074
Dispersion correction            ... done

CARTESIAN COORDINATES (ANGSTROEM)
---------------------------------
  O     -2.581690   -0.394764    0.742037
  O     -1.354144    0.203984    1.147677
  C     -0.620092    0.479399   -0.028656
  C      0.578410    1.281733    0.385371
  C      1.742750    0.595088    0.067288
  C      1.456075   -0.611082   -0.559424
  C     -0.025416   -0.779719   -0.700696
  H     -2.630600   -1.132456    1.364690
  H     -1.282535    1.038855   -0.716455
  H      0.505485    2.244894    0.891091
  H      2.751280    0.959109    0.277009
  H      2.193807   -1.332814   -0.914788
  H     -0.328977   -0.867069   -1.758426
  H     -0.404352   -1.685055   -0.196720

Dispersion correction           -0.009936605
FINAL SINGLE POINT ENERGY      -344.396809285582
Dispersion correction            ... done

DIPOLE MOMENT
-------------
                                X             Y             Z
Electronic contribution:     -2.16176       1.14675       2.46373
Nuclear contribution   :      2.35472      -1.29440      -2.28430
                        -----------------------------------------
Total Dipole Moment    :      0.19295      -0.14765       0.17943
                        -----------------------------------------
Magnitude (a.u.)       :      0.30204
Magnitude (Debye)      :      0.76772

Rotational constants in cm-1:     0.209628     0.066357     0.054683
Rotational constants in MHz :  6284.498448  1989.344427  1639.347283

                             ****ORCA TERMINATED NORMALLY****
TOTAL RUN TIME: 0 days 0 hours 1 minutes 28 seconds 65 msec
