   * xtb version 6.6.1 (8d0f1dd) compiled by 'conda@1efc2f54142f' on 2023-08-01
          program call               : /gpfs/fs1/home/copan/code/autode-practice/.pixi/envs/default/bin/xtb r0_C5H7O2_conf1_opt_xtb.xyz --chrg 0 --uhf 1 --opt

   ID    Z sym.   atoms
    1    8 O      1, 2
    2    6 C      3-7
    3    1 H      8-14

          :  Hamiltonian                  GFN2-xTB          :
 * total energy  :   -22.1745747 Eh     change       -0.2483844E-09 Eh
 * total energy  :   -22.1970291 Eh     change       -0.2245438E-01 Eh
 * total energy  :   -22.2080696 Eh     change       -0.1104045E-01 Eh
 * total energy  :   -22.2154465 Eh     change       -0.7376960E-02 Eh
 * total energy  :   -22.2221117 Eh     change       -0.6665140E-02 Eh
 * total energy  :   -22.2281866 Eh     change       -0.6074902E-02 Eh
 * total energy  :   -22.2311153 Eh     change       -0.2928706E-02 Eh
 * total energy  :   -22.2363954 Eh     change       -0.5280152E-02 Eh
 * total energy  :   -22.2272975 Eh     change        0.9097954E-02 Eh
 * total energy  :   -22.2388708 Eh     change       -0.1157336E-01 Eh
 * total energy  :   -22.2478834 Eh     change       -0.2784270E-04 Eh
 * total energy  :   -22.2478860 Eh     change       -0.2621046E-05 Eh
 * total energy  :   -22.2479262 Eh     change       -0.4016893E-04 Eh
 * total energy  :   -22.2479446 Eh     change       -0.1845210E-04 Eh
 * total energy  :   -22.2479449 Eh     change       -0.2826554E-06 Eh
 * total energy  :   -22.2479604 Eh     change       -0.1546443E-04 Eh
 * total energy  :   -22.2479652 Eh     change       -0.4772838E-05 Eh
 * total energy  :   -22.2479730 Eh     change       -0.7829568E-05 Eh
 * total energy  :   -22.2479770 Eh     change       -0.4045586E-05 Eh
   *** GEOMETRY OPTIMIZATION CONVERGED AFTER 68 ITERATIONS ***

 final structure:
================
14
 xtb: 6.6.1 (8d0f1dd)
O           -2.59336633465493       -0.52874522758422        0.71420397039280
O           -1.35377423481105        0.06691174519057        1.11930204132087
C           -0.59250017645361        0.39776818822679       -0.02288530782457
C            0.57424545244951        1.21540636227218        0.43452652607759
C            1.75207189501474        0.61873067687702        0.04399031563982
C            1.51551688046536       -0.54893202717381       -0.64428935148896
C            0.05288538266271       -0.81831492057909       -0.72639702060230
H           -3.04670098748704       -0.62960921479995        1.56061431584867
H           -1.24320743368671        0.95988288217395       -0.71214330614940
H            0.45690987117059        2.11330032353502        1.00806213313292
H            2.72916228602111        1.02141460924446        0.24809229414675
H            2.25494497195748       -1.20320948813746       -1.06634322300472
H           -0.28794842664036       -0.92781567274662       -1.75836713205237
H           -0.21823914600786       -1.73668823649894       -0.19836625543715

          :  Hamiltonian                  GFN2-xTB          :
         :: total energy             -22.247977042360 Eh    ::
         :: gradient norm              0.000331759951 Eh/a0 ::
         :: HOMO-LUMO gap              3.672397529072 eV    ::
         :: SCC energy               -22.496532487396 Eh    ::
         :: -> dispersion             -0.008639106554 Eh    ::
         :: repulsion energy           0.248543945173 Eh    ::

    * Orbital Energies and Occupations

         #    Occupation            Energy/Eh            Energy/eV
      -------------------------------------------------------------
         1        2.0000           -0.7172523             -19.5174
       ...           ...                  ...                  ...
         8        2.0000           -0.5671929             -15.4341
         9        2.0000           -0.5478283             -14.9072
        10        2.0000           -0.5405299             -14.7086
        11        2.0000           -0.5207653             -14.1707
        12        2.0000           -0.5096062             -13.8671
        13        2.0000           -0.4783963             -13.0178
        14        2.0000           -0.4644221             -12.6376
        15        2.0000           -0.4591461             -12.4940
        16        2.0000           -0.4548594             -12.3774
        17        2.0000           -0.4508859             -12.2692
        18        2.0000           -0.4324546             -11.7677
        19        2.0000           -0.4035056             -10.9799
        20        1.0000           -0.3169529              -8.6247 (HOMO)
        21                         -0.1819948              -4.9523 (LUMO)
        22                         -0.1458967              -3.9701
        23                          0.0633484               1.7238
        24                          0.0803172               2.1855
        25                          0.1134141               3.0862
        26                          0.1306933               3.5563
        27                          0.1421219               3.8673
        28                          0.1459198               3.9707
        29                          0.1616336               4.3983
        30                          0.2090247               5.6879
        31                          0.2445450               6.6544
       ...                                ...                  ...
        35                          0.6191923              16.8491
      -------------------------------------------------------------
                  HL-Gap            0.1349581 Eh            3.6724 eV

     #   Z          covCN         q      C6AA      α(0)
     1   8 O        1.729    -0.332    19.562     5.972
     2   8 O        1.773    -0.216    17.579     5.662
     3   6 C        3.772     0.126    18.557     6.138
     4   6 C        2.975    -0.057    29.413     8.896
     5   6 C        2.945    -0.028    28.709     8.788
     6   6 C        2.975    -0.043    29.059     8.842
     7   6 C        3.845    -0.069    21.792     6.640
     8   1 H        0.805     0.318     0.668     1.284
     9   1 H        0.923     0.047     2.364     2.404
    10   1 H        0.926     0.047     2.361     2.403
    11   1 H        0.926     0.041     2.431     2.438
    12   1 H        0.926     0.039     2.455     2.450
    13   1 H        0.924     0.054     2.276     2.359
    14   1 H        0.924     0.074     2.042     2.235

Wiberg/Mayer (AO) data.
largest (>0.10) Wiberg bond orders for each atom

     #   Z sym  total        # sym  WBO       # sym  WBO       # sym  WBO
 ---------------------------------------------------------------------------
     1   8 O    1.904 --     2 O    0.965     8 H    0.892
     2   8 O    2.012 --     3 C    0.966     1 O    0.965
     3   6 C    3.940 --     4 C    1.008     7 C    0.978     2 O    0.966
                             9 H    0.938
     4   6 C    3.780 --     5 C    1.483     3 C    1.008    10 H    0.973
                             6 C    0.206
     5   6 C    3.991 --     4 C    1.483     6 C    1.479    11 H    0.968
     6   6 C    3.790 --     5 C    1.479     7 C    1.056    12 H    0.974
                             4 C    0.206
     7   6 C    3.997 --     6 C    1.056     3 C    0.978    13 H    0.954
                            14 H    0.943
     8   1 H    0.899 --     1 O    0.892
     9   1 H    0.997 --     3 C    0.938
    10   1 H    0.998 --     4 C    0.973
    11   1 H    0.997 --     5 C    0.968
    12   1 H    0.998 --     6 C    0.974
    13   1 H    0.997 --     7 C    0.954
    14   1 H    0.994 --     7 C    0.943
 ---------------------------------------------------------------------------

molecular dipole:
                 x           y           z       tot (Debye)
 q only:        0.176      -0.067      -0.114
   full:        0.053      -0.077      -0.023       0.246

           -------------------------------------------------
          | TOTAL ENERGY              -22.247977042360 Eh   |
          | GRADIENT NORM               0.000331759951 Eh/α |
          | HOMO-LUMO GAP               3.672397529072 eV   |
           -------------------------------------------------

 * finished run on 2025/05/23 at 12:03:01.792
