                         Program Version 5.0.4 -  RELEASE  -
|  1> ! EnGrad PBE0 RIJCOSX D3BJ def2-SVP def2/J
|  2> %output
|  3> xyzfile=True
|  4> end
|  5> %scf
|  6> maxiter 250
|  7> end
|  8> %output
|  9> Print[P_Hirshfeld] = 1
| 10> end
| 11> % maxcore
| 12> 4000
| 13> *xyz 0 2
| 14> O   -2.38244176  -0.21425681   1.58897143
| 15> O   -0.55373197  -0.29201471   0.84922618
| 16> C   -0.73856498   0.21529382  -0.43822397
| 17> C    0.15146248   0.90347479   0.53068362
| 18> C    1.52121895   0.43118291   0.27667028
| 19> C    1.36772553  -0.61979182  -0.53062186
| 20> C    0.09653432  -0.65431609  -1.31710017
| 21> H   -2.10169174   0.38409403   2.30124120
| 22> H   -1.74266249   0.58107541  -0.67048660
| 23> H   -0.13445425   1.80146482   1.08355724
| 24> H    2.41638763   0.71045813   0.83052781
| 25> H    2.18379360  -1.30962292  -0.77012070
| 26> H    0.26133068  -0.27628738  -2.34035796
| 27> H   -0.34490600  -1.66065883  -1.39397117
| 28> *
| 29>
| 30>                          ****END OF INPUT****

CARTESIAN COORDINATES (ANGSTROEM)
---------------------------------
  O     -2.382442   -0.214257    1.588971
  O     -0.553732   -0.292015    0.849226
  C     -0.738565    0.215294   -0.438224
  C      0.151462    0.903475    0.530684
  C      1.521219    0.431183    0.276670
  C      1.367726   -0.619792   -0.530622
  C      0.096534   -0.654316   -1.317100
  H     -2.101692    0.384094    2.301241
  H     -1.742662    0.581075   -0.670487
  H     -0.134454    1.801465    1.083557
  H      2.416388    0.710458    0.830528
  H      2.183794   -1.309623   -0.770121
  H      0.261331   -0.276287   -2.340358
  H     -0.344906   -1.660659   -1.393971

 Total Charge           Charge          ....    0
 Multiplicity           Mult            ....    2
 Number of Electrons    NEL             ....   53
 Basis Dimension        Dim             ....  133

ORBITAL ENERGIES
----------------
                 SPIN UP ORBITALS
  NO   OCC          E(Eh)            E(eV)
   0   1.0000     -19.243829      -523.6512
   1   1.0000     -19.190476      -522.1994
   2   1.0000     -10.297825      -280.2181
   3   1.0000     -10.292911      -280.0844
   4   1.0000     -10.248084      -278.8645
   5   1.0000     -10.246161      -278.8122
   6   1.0000     -10.240165      -278.6491
   7   1.0000      -1.144038       -31.1309
   8   1.0000      -0.952181       -25.9102
   9   1.0000      -0.849651       -23.1202
  10   1.0000      -0.757062       -20.6007
  11   1.0000      -0.686052       -18.6684
  12   1.0000      -0.607395       -16.5281
  13   1.0000      -0.575028       -15.6473
  14   1.0000      -0.570561       -15.5258
  15   1.0000      -0.484747       -13.1906
  16   1.0000      -0.475695       -12.9443
  17   1.0000      -0.448162       -12.1951
  18   1.0000      -0.423500       -11.5240
  19   1.0000      -0.414466       -11.2782
  20   1.0000      -0.401130       -10.9153
  21   1.0000      -0.386130       -10.5071
  22   1.0000      -0.363051        -9.8791
  23   1.0000      -0.329569        -8.9680
  24   1.0000      -0.290133        -7.8949
  25   1.0000      -0.276205        -7.5159
  26   1.0000      -0.238560        -6.4916
  27   0.0000      -0.010539        -0.2868
  28   0.0000       0.069199         1.8830
  29   0.0000       0.095310         2.5935
  30   0.0000       0.105706         2.8764
  31   0.0000       0.114067         3.1039

                 SPIN DOWN ORBITALS
  NO   OCC          E(Eh)            E(eV)
   0   1.0000     -19.236814      -523.4603
   1   1.0000     -19.166050      -521.5347
   2   1.0000     -10.297799      -280.2174
   3   1.0000     -10.293138      -280.0905
   4   1.0000     -10.248048      -278.8636
   5   1.0000     -10.245734      -278.8006
   6   1.0000     -10.240188      -278.6497
   7   1.0000      -1.135108       -30.8879
   8   1.0000      -0.891545       -24.2602
   9   1.0000      -0.844874       -22.9902
  10   1.0000      -0.756723       -20.5915
  11   1.0000      -0.682018       -18.5586
  12   1.0000      -0.606318       -16.4988
  13   1.0000      -0.572849       -15.5880
  14   1.0000      -0.565069       -15.3763
  15   1.0000      -0.476210       -12.9583
  16   1.0000      -0.474058       -12.8998
  17   1.0000      -0.440597       -11.9892
  18   1.0000      -0.418023       -11.3750
  19   1.0000      -0.410607       -11.1732
  20   1.0000      -0.386067       -10.5054
  21   1.0000      -0.380531       -10.3548
  22   1.0000      -0.337422        -9.1817
  23   1.0000      -0.306483        -8.3398
  24   1.0000      -0.260092        -7.0775
  25   1.0000      -0.253135        -6.8882
  26   0.0000      -0.045489        -1.2378
  27   0.0000      -0.007832        -0.2131
  28   0.0000       0.071526         1.9463
  29   0.0000       0.097012         2.6398
  30   0.0000       0.106410         2.8956

MULLIKEN ATOMIC CHARGES AND SPIN POPULATIONS
--------------------------------------------
   0 O :   -0.277923    0.854937
   1 O :   -0.271649    0.151261
   2 C :    0.031040   -0.010681
   3 C :    0.062629   -0.000466
   4 C :    0.020575   -0.007407
   5 C :   -0.133519    0.026404
   6 C :    0.105227    0.000417
   7 H :    0.155311   -0.020986
   8 H :    0.058475    0.003082
   9 H :    0.040298    0.004381
  10 H :    0.036665    0.000565
  11 H :    0.035008   -0.001553
  12 H :    0.067269   -0.000040
  13 H :    0.070594    0.000086
Sum of atomic charges         :    0.0000000

LOEWDIN ATOMIC CHARGES AND SPIN POPULATIONS
-------------------------------------------
   0 O :   -0.184506    0.809304
   1 O :   -0.068437    0.167595
   2 C :    0.058268   -0.004900
   3 C :    0.047290    0.002292
   4 C :   -0.057102   -0.004269
   5 C :   -0.001381    0.020062
   6 C :   -0.046515    0.001139
   7 H :    0.040796    0.004407
   8 H :    0.026801    0.001711
   9 H :    0.024504    0.002412
  10 H :    0.034844    0.000361
  11 H :    0.027610   -0.000131
  12 H :    0.046489    0.000009
  13 H :    0.051338    0.000008

  Mayer bond orders larger than 0.100000
B(  0-O ,  1-O ) :   0.2121 B(  0-O ,  7-H ) :   0.9973 B(  1-O ,  2-C ) :   0.9032
B(  1-O ,  3-C ) :   0.9028 B(  2-C ,  3-C ) :   1.0159 B(  2-C ,  6-C ) :   0.9997
B(  2-C ,  8-H ) :   0.9601 B(  3-C ,  4-C ) :   0.9768 B(  3-C ,  9-H ) :   0.9773
B(  4-C ,  5-C ) :   1.8291 B(  4-C , 10-H ) :   0.9956 B(  5-C ,  6-C ) :   1.0231
B(  5-C , 11-H ) :   0.9666 B(  6-C , 12-H ) :   0.9259 B(  6-C , 13-H ) :   0.9201

Dispersion correction           -0.009854829
FINAL SINGLE POINT ENERGY      -344.364161733981
Dispersion correction            ... done

DIPOLE MOMENT
-------------
                                X             Y             Z
Electronic contribution:     -0.84418       0.19947       1.77782
Nuclear contribution   :      1.63439       0.51192      -2.21422
                        -----------------------------------------
Total Dipole Moment    :      0.79021       0.71140      -0.43640
                        -----------------------------------------
Magnitude (a.u.)       :      1.14933
Magnitude (Debye)      :      2.92137

Rotational constants in cm-1:     0.195222     0.072814     0.061653
Rotational constants in MHz :  5852.610362  2182.912544  1848.301343

                             ****ORCA TERMINATED NORMALLY****
TOTAL RUN TIME: 0 days 0 hours 1 minutes 8 seconds 438 msec
