                         Program Version 5.0.4 -  RELEASE  -
|  1> ! EnGrad PBE0 RIJCOSX D3BJ def2-SVP def2/J
|  2> %output
|  3> xyzfile=True
|  4> end
|  5> %scf
|  6> maxiter 250
|  7> end
|  8> %output
|  9> Print[P_Hirshfeld] = 1
| 10> end
| 11> % maxcore
| 12> 4000
| 13> *xyz 0 2
| 14> O   -2.45916557  -0.20832121   1.62162908
| 15> O   -0.58734450  -0.28118484   0.90187847
| 16> C   -0.74066372   0.22488833  -0.43765529
| 17> C    0.14930316   0.90937972   0.52473726
| 18> C    1.52400396   0.42744052   0.28358156
| 19> C    1.48314234  -0.63862024  -0.61882436
| 20> C    0.09698729  -0.66081665  -1.31426313
| 21> H   -2.10126490   0.38109838   2.29743637
| 22> H   -1.74300173   0.57681061  -0.66907728
| 23> H   -0.13490557   1.80345001   1.08267717
| 24> H    2.41640057   0.70990021   0.83219298
| 25> H    2.18352345  -1.30941440  -0.77041067
| 26> H    0.25920835  -0.27420043  -2.33928600
| 27> H   -0.34603618  -1.66037497  -1.39406641
| 28> *
| 29>
| 30>                          ****END OF INPUT****

CARTESIAN COORDINATES (ANGSTROEM)
---------------------------------
  O     -2.459166   -0.208321    1.621629
  O     -0.587345   -0.281185    0.901878
  C     -0.740664    0.224888   -0.437655
  C      0.149303    0.909380    0.524737
  C      1.524004    0.427441    0.283582
  C      1.483142   -0.638620   -0.618824
  C      0.096987   -0.660817   -1.314263
  H     -2.101265    0.381098    2.297436
  H     -1.743002    0.576811   -0.669077
  H     -0.134906    1.803450    1.082677
  H      2.416401    0.709900    0.832193
  H      2.183523   -1.309414   -0.770411
  H      0.259208   -0.274200   -2.339286
  H     -0.346036   -1.660375   -1.394066

 Total Charge           Charge          ....    0
 Multiplicity           Mult            ....    2
 Number of Electrons    NEL             ....   53
 Basis Dimension        Dim             ....  133

ORBITAL ENERGIES
----------------
                 SPIN UP ORBITALS
  NO   OCC          E(Eh)            E(eV)
   0   1.0000     -19.241610      -523.5908
   1   1.0000     -19.193620      -522.2849
   2   1.0000     -10.301518      -280.3186
   3   1.0000     -10.296981      -280.1951
   4   1.0000     -10.252734      -278.9911
   5   1.0000     -10.251135      -278.9476
   6   1.0000     -10.250345      -278.9261
   7   1.0000      -1.118790       -30.4438
   8   1.0000      -0.954954       -25.9856
   9   1.0000      -0.837761       -22.7966
  10   1.0000      -0.747706       -20.3461
  11   1.0000      -0.693864       -18.8810
  12   1.0000      -0.605249       -16.4697
  13   1.0000      -0.588435       -16.0121
  14   1.0000      -0.563772       -15.3410
  15   1.0000      -0.481630       -13.1058
  16   1.0000      -0.468247       -12.7416
  17   1.0000      -0.443284       -12.0624
  18   1.0000      -0.426690       -11.6108
  19   1.0000      -0.420055       -11.4303
  20   1.0000      -0.405433       -11.0324
  21   1.0000      -0.377133       -10.2623
  22   1.0000      -0.367143        -9.9905
  23   1.0000      -0.332437        -9.0461
  24   1.0000      -0.287409        -7.8208
  25   1.0000      -0.278235        -7.5712
  26   1.0000      -0.243329        -6.6213
  27   0.0000      -0.020907        -0.5689
  28   0.0000       0.070867         1.9284
  29   0.0000       0.095803         2.6069
  30   0.0000       0.101846         2.7714
  31   0.0000       0.112127         3.0511

                 SPIN DOWN ORBITALS
  NO   OCC          E(Eh)            E(eV)
   0   1.0000     -19.235343      -523.4203
   1   1.0000     -19.168931      -521.6131
   2   1.0000     -10.301394      -280.3152
   3   1.0000     -10.297208      -280.2013
   4   1.0000     -10.252732      -278.9910
   5   1.0000     -10.251373      -278.9540
   6   1.0000     -10.249702      -278.9086
   7   1.0000      -1.110530       -30.2190
   8   1.0000      -0.892580       -24.2883
   9   1.0000      -0.834017       -22.6948
  10   1.0000      -0.747630       -20.3440
  11   1.0000      -0.689962       -18.7748
  12   1.0000      -0.604280       -16.4433
  13   1.0000      -0.587414       -15.9843
  14   1.0000      -0.558961       -15.2101
  15   1.0000      -0.473522       -12.8852
  16   1.0000      -0.466498       -12.6940
  17   1.0000      -0.436225       -11.8703
  18   1.0000      -0.422037       -11.4842
  19   1.0000      -0.416320       -11.3286
  20   1.0000      -0.388072       -10.5600
  21   1.0000      -0.374724       -10.1967
  22   1.0000      -0.340562        -9.2672
  23   1.0000      -0.303942        -8.2707
  24   1.0000      -0.259438        -7.0597
  25   1.0000      -0.255289        -6.9468
  26   0.0000      -0.052694        -1.4339
  27   0.0000      -0.015616        -0.4249
  28   0.0000       0.073412         1.9976
  29   0.0000       0.097166         2.6440
  30   0.0000       0.103016         2.8032

MULLIKEN ATOMIC CHARGES AND SPIN POPULATIONS
--------------------------------------------
   0 O :   -0.267236    0.870318
   1 O :   -0.301517    0.133696
   2 C :    0.042021   -0.011655
   3 C :    0.066955    0.005465
   4 C :    0.022999   -0.026500
   5 C :   -0.068857    0.046233
   6 C :    0.074847   -0.001777
   7 H :    0.156802   -0.021178
   8 H :    0.064328    0.002296
   9 H :    0.046113    0.003025
  10 H :    0.035607    0.001481
  11 H :   -0.015553   -0.002066
  12 H :    0.069396    0.000235
  13 H :    0.074096    0.000428
Sum of atomic charges         :    0.0000000

LOEWDIN ATOMIC CHARGES AND SPIN POPULATIONS
-------------------------------------------
   0 O :   -0.172876    0.826626
   1 O :   -0.106716    0.149127
   2 C :    0.073875   -0.006257
   3 C :    0.052074    0.004681
   4 C :   -0.046786   -0.017930
   5 C :    0.025006    0.035072
   6 C :   -0.043467    0.000283
   7 H :    0.037991    0.004072
   8 H :    0.030080    0.001127
   9 H :    0.026559    0.001699
  10 H :    0.030432    0.000373
  11 H :   -0.000032    0.000564
  12 H :    0.045711    0.000318
  13 H :    0.048149    0.000244

  Mayer bond orders larger than 0.100000
B(  0-O ,  1-O ) :   0.1998 B(  0-O ,  7-H ) :   0.9971 B(  1-O ,  2-C ) :   0.8979
B(  1-O ,  3-C ) :   0.8872 B(  2-C ,  3-C ) :   1.0182 B(  2-C ,  6-C ) :   1.0034
B(  2-C ,  8-H ) :   0.9603 B(  3-C ,  4-C ) :   0.9844 B(  3-C ,  9-H ) :   0.9735
B(  4-C ,  5-C ) :   1.8099 B(  4-C , 10-H ) :   0.9964 B(  5-C ,  6-C ) :   1.0070
B(  5-C , 11-H ) :   0.9983 B(  6-C , 12-H ) :   0.9295 B(  6-C , 13-H ) :   0.9295

Dispersion correction           -0.009814262
FINAL SINGLE POINT ENERGY      -344.361873102286
Dispersion correction            ... done

DIPOLE MOMENT
-------------
                                X             Y             Z
Electronic contribution:     -0.81718       0.19870       1.76713
Nuclear contribution   :      1.65543       0.50233      -2.23759
                        -----------------------------------------
Total Dipole Moment    :      0.83824       0.70103      -0.47047
                        -----------------------------------------
Magnitude (a.u.)       :      1.18972
Magnitude (Debye)      :      3.02402

Rotational constants in cm-1:     0.193900     0.068473     0.058514
Rotational constants in MHz :  5812.961492  2052.778360  1754.199338

                             ****ORCA TERMINATED NORMALLY****
TOTAL RUN TIME: 0 days 0 hours 1 minutes 1 seconds 526 msec
