                         Program Version 5.0.4 -  RELEASE  -
|  1> ! EnGrad PBE0 RIJCOSX D3BJ def2-SVP def2/J
|  2> %output
|  3> xyzfile=True
|  4> end
|  5> %scf
|  6> maxiter 250
|  7> end
|  8> %output
|  9> Print[P_Hirshfeld] = 1
| 10> end
| 11> % maxcore
| 12> 4000
| 13> *xyz 0 2
| 14> O   -2.46555215  -0.20863065   1.62282431
| 15> O   -0.58665994  -0.27660903   0.89741993
| 16> C   -0.73584501   0.22044375  -0.43161327
| 17> C    0.14939944   0.90482646   0.52500561
| 18> C    1.52690626   0.41357319   0.27131876
| 19> C    1.45056044  -0.60092028  -0.60444013
| 20> C    0.10487406  -0.66062211  -1.31466170
| 21> H   -2.10130009   0.38194823   2.29855965
| 22> H   -1.74389859   0.57710967  -0.66967277
| 23> H   -0.13413527   1.80440964   1.08210699
| 24> H    2.41687580   0.71071677   0.83377220
| 25> H    2.20801946  -1.33057649  -0.77694984
| 26> H    0.25720530  -0.27425546  -2.33903086
| 27> H   -0.34623463  -1.66140003  -1.39410181
| 28> *
| 29>
| 30>                          ****END OF INPUT****

CARTESIAN COORDINATES (ANGSTROEM)
---------------------------------
  O     -2.465552   -0.208631    1.622824
  O     -0.586660   -0.276609    0.897420
  C     -0.735845    0.220444   -0.431613
  C      0.149399    0.904826    0.525006
  C      1.526906    0.413573    0.271319
  C      1.450560   -0.600920   -0.604440
  C      0.104874   -0.660622   -1.314662
  H     -2.101300    0.381948    2.298560
  H     -1.743899    0.577110   -0.669673
  H     -0.134135    1.804410    1.082107
  H      2.416876    0.710717    0.833772
  H      2.208019   -1.330576   -0.776950
  H      0.257205   -0.274255   -2.339031
  H     -0.346235   -1.661400   -1.394102

 Total Charge           Charge          ....    0
 Multiplicity           Mult            ....    2
 Number of Electrons    NEL             ....   53
 Basis Dimension        Dim             ....  133

ORBITAL ENERGIES
----------------
                 SPIN UP ORBITALS
  NO   OCC          E(Eh)            E(eV)
   0   1.0000     -19.240954      -523.5730
   1   1.0000     -19.195480      -522.3356
   2   1.0000     -10.299658      -280.2679
   3   1.0000     -10.295193      -280.1464
   4   1.0000     -10.250840      -278.9395
   5   1.0000     -10.248594      -278.8784
   6   1.0000     -10.245042      -278.7818
   7   1.0000      -1.125325       -30.6217
   8   1.0000      -0.955708       -26.0062
   9   1.0000      -0.846133       -23.0244
  10   1.0000      -0.749234       -20.3877
  11   1.0000      -0.689259       -18.7557
  12   1.0000      -0.605565       -16.4783
  13   1.0000      -0.577494       -15.7144
  14   1.0000      -0.564852       -15.3704
  15   1.0000      -0.483127       -13.1465
  16   1.0000      -0.467853       -12.7309
  17   1.0000      -0.441549       -12.0152
  18   1.0000      -0.423755       -11.5309
  19   1.0000      -0.420174       -11.4335
  20   1.0000      -0.404955       -11.0194
  21   1.0000      -0.379976       -10.3397
  22   1.0000      -0.367022        -9.9872
  23   1.0000      -0.330892        -9.0040
  24   1.0000      -0.290500        -7.9049
  25   1.0000      -0.279568        -7.6074
  26   1.0000      -0.247573        -6.7368
  27   0.0000      -0.010270        -0.2794
  28   0.0000       0.068543         1.8652
  29   0.0000       0.095212         2.5908
  30   0.0000       0.106288         2.8922
  31   0.0000       0.109878         2.9899

                 SPIN DOWN ORBITALS
  NO   OCC          E(Eh)            E(eV)
   0   1.0000     -19.234826      -523.4062
   1   1.0000     -19.170669      -521.6604
   2   1.0000     -10.299554      -280.2651
   3   1.0000     -10.295406      -280.1523
   4   1.0000     -10.250825      -278.9391
   5   1.0000     -10.248122      -278.8656
   6   1.0000     -10.245143      -278.7845
   7   1.0000      -1.117360       -30.4049
   8   1.0000      -0.892972       -24.2990
   9   1.0000      -0.842318       -22.9206
  10   1.0000      -0.749040       -20.3824
  11   1.0000      -0.685412       -18.6510
  12   1.0000      -0.604671       -16.4539
  13   1.0000      -0.576265       -15.6810
  14   1.0000      -0.560097       -15.2410
  15   1.0000      -0.474868       -12.9218
  16   1.0000      -0.466384       -12.6910
  17   1.0000      -0.433568       -11.7980
  18   1.0000      -0.421195       -11.4613
  19   1.0000      -0.413191       -11.2435
  20   1.0000      -0.389684       -10.6038
  21   1.0000      -0.377610       -10.2753
  22   1.0000      -0.340069        -9.2537
  23   1.0000      -0.302272        -8.2252
  24   1.0000      -0.265404        -7.2220
  25   1.0000      -0.256346        -6.9755
  26   0.0000      -0.053259        -1.4492
  27   0.0000      -0.006543        -0.1780
  28   0.0000       0.070866         1.9284
  29   0.0000       0.096782         2.6336
  30   0.0000       0.107313         2.9201

MULLIKEN ATOMIC CHARGES AND SPIN POPULATIONS
--------------------------------------------
   0 O :   -0.264929    0.876377
   1 O :   -0.298757    0.129858
   2 C :    0.032243   -0.010819
   3 C :    0.058984    0.004196
   4 C :    0.030021   -0.014104
   5 C :   -0.121787    0.031611
   6 C :    0.085300   -0.000592
   7 H :    0.158698   -0.021725
   8 H :    0.064834    0.002582
   9 H :    0.045247    0.003126
  10 H :    0.036532    0.000903
  11 H :    0.031344   -0.001615
  12 H :    0.068247   -0.000030
  13 H :    0.074023    0.000231
Sum of atomic charges         :    0.0000000

LOEWDIN ATOMIC CHARGES AND SPIN POPULATIONS
-------------------------------------------
   0 O :   -0.170812    0.832937
   1 O :   -0.101502    0.145153
   2 C :    0.067151   -0.005494
   3 C :    0.050719    0.004420
   4 C :   -0.053385   -0.008705
   5 C :    0.001465    0.023922
   6 C :   -0.045625    0.000630
   7 H :    0.040409    0.003483
   8 H :    0.030119    0.001357
   9 H :    0.025982    0.001763
  10 H :    0.034125    0.000345
  11 H :    0.025444    0.000009
  12 H :    0.046193    0.000080
  13 H :    0.049715    0.000100

  Mayer bond orders larger than 0.100000
B(  0-O ,  1-O ) :   0.1936 B(  0-O ,  7-H ) :   0.9958 B(  1-O ,  2-C ) :   0.9040
B(  1-O ,  3-C ) :   0.8921 B(  2-C ,  3-C ) :   1.0220 B(  2-C ,  6-C ) :   1.0018
B(  2-C ,  8-H ) :   0.9575 B(  3-C ,  4-C ) :   0.9763 B(  3-C ,  9-H ) :   0.9724
B(  4-C ,  5-C ) :   1.8255 B(  4-C , 10-H ) :   0.9960 B(  5-C ,  6-C ) :   1.0143
B(  5-C , 11-H ) :   0.9773 B(  6-C , 12-H ) :   0.9284 B(  6-C , 13-H ) :   0.9272

Dispersion correction           -0.009807201
FINAL SINGLE POINT ENERGY      -344.376339123052
Dispersion correction            ... done

DIPOLE MOMENT
-------------
                                X             Y             Z
Electronic contribution:     -0.86334       0.22788       1.78970
Nuclear contribution   :      1.69460       0.46901      -2.24475
                        -----------------------------------------
Total Dipole Moment    :      0.83126       0.69690      -0.45506
                        -----------------------------------------
Magnitude (a.u.)       :      1.17632
Magnitude (Debye)      :      2.98997

Rotational constants in cm-1:     0.196666     0.068804     0.058754
Rotational constants in MHz :  5895.903847  2062.692360  1761.386175

                             ****ORCA TERMINATED NORMALLY****
TOTAL RUN TIME: 0 days 0 hours 1 minutes 15 seconds 8 msec
