                         Program Version 5.0.4 -  RELEASE  -
|  1> ! Opt PBE0 RIJCOSX D3BJ def2-SVP def2/J
|  2> %output
|  3> xyzfile=True
|  4> end
|  5> %scf
|  6> maxiter 250
|  7> end
|  8> %output
|  9> Print[P_Hirshfeld] = 1
| 10> end
| 11> % maxcore
| 12> 4000
| 13> %pal nprocs 8
| 14> end
| 15> *xyz 0 1
| 16> C    0.25342482   1.49689197  -0.31402883
| 17> C   -1.02123044   1.16359653  -0.07877468
| 18> C   -1.45958630  -0.23112079   0.25981475
| 19> C   -0.28375729  -1.12759923   0.63517043
| 20> C    0.87908313  -0.93434744  -0.33087481
| 21> C    1.38023934   0.50590995  -0.30038682
| 22> H    0.50292991   2.54130002  -0.53125511
| 23> H   -1.79540718   1.93712524  -0.12963806
| 24> H   -2.19786858  -0.20021214   1.07939116
| 25> H   -2.00541315  -0.65982086  -0.60277563
| 26> H    0.05260995  -0.87394463   1.65637380
| 27> H   -0.59981306  -2.18235177   0.66436167
| 28> H    1.70068393  -1.63143711  -0.10212398
| 29> H    0.53890855  -1.17668861  -1.35356319
| 30> H    2.00083605   0.67480161   0.60085914
| 31> H    2.05446031   0.69819726  -1.15254987
| 32> *
| 33>
| 34>                          ****END OF INPUT****
 Total Charge           Charge          ....    0
 Multiplicity           Mult            ....    1
 Number of Electrons    NEL             ....   46
Dispersion correction           -0.011879874
FINAL SINGLE POINT ENERGY      -234.206943509109
Dispersion correction            ... done
Dispersion correction           -0.011879942
FINAL SINGLE POINT ENERGY      -234.206945216037
Dispersion correction            ... done
                    ***********************HURRAY********************

CARTESIAN COORDINATES (ANGSTROEM)
---------------------------------
  C      0.253368    1.496494   -0.313565
  C     -1.020957    1.163229   -0.078947
  C     -1.460236   -0.230989    0.259543
  C     -0.284044   -1.127585    0.635068
  C      0.879312   -0.934208   -0.330776
  C      1.380687    0.506395   -0.300268
  H      0.502269    2.541166   -0.530173
  H     -1.794644    1.937190   -0.130484
  H     -2.196723   -0.199089    1.080670
  H     -2.007282   -0.659726   -0.601959
  H      0.051432   -0.875828    1.656724
  H     -0.600210   -2.182390    0.661097
  H      1.700810   -1.630362   -0.098846
  H      0.540935   -1.177841   -1.353443
  H      2.002673    0.675771    0.599638
  H      2.052710    0.698072   -1.154281

 Multiplicity           Mult            ....    1
 Number of Electrons    NEL             ....   46
 Basis Dimension        Dim             ....  134

ORBITAL ENERGIES
----------------

  NO   OCC          E(Eh)            E(eV)
   0   2.0000     -10.229313      -278.3538
   1   2.0000     -10.229282      -278.3529
   2   2.0000     -10.226123      -278.2669
   3   2.0000     -10.225987      -278.2633
   4   2.0000     -10.224934      -278.2346
   5   2.0000     -10.224156      -278.2134
   6   2.0000      -0.849855       -23.1257
   7   2.0000      -0.754649       -20.5350
   8   2.0000      -0.751861       -20.4592
   9   2.0000      -0.628145       -17.0927
  10   2.0000      -0.607495       -16.5308
  11   2.0000      -0.517983       -14.0950
  12   2.0000      -0.505947       -13.7675
  13   2.0000      -0.454205       -12.3596
  14   2.0000      -0.436403       -11.8751
  15   2.0000      -0.419223       -11.4076
  16   2.0000      -0.400830       -10.9071
  17   2.0000      -0.390862       -10.6359
  18   2.0000      -0.387822       -10.5532
  19   2.0000      -0.333566        -9.0768
  20   2.0000      -0.325987        -8.8706
  21   2.0000      -0.313920        -8.5422
  22   2.0000      -0.249739        -6.7957
  23   0.0000       0.029314         0.7977
  24   0.0000       0.066576         1.8116
  25   0.0000       0.100233         2.7275
  26   0.0000       0.106091         2.8869
  27   0.0000       0.110902         3.0178

MULLIKEN ATOMIC CHARGES
-----------------------
   0 C :   -0.109404
   1 C :   -0.108290
   2 C :    0.002175
   3 C :   -0.072812
   4 C :   -0.073240
   5 C :    0.003028
   6 H :    0.022916
   7 H :    0.022977
   8 H :    0.040165
   9 H :    0.045043
  10 H :    0.038348
  11 H :    0.032757
  12 H :    0.032781
  13 H :    0.038489
  14 H :    0.045059
  15 H :    0.040008
Sum of atomic charges:    0.0000000

LOEWDIN ATOMIC CHARGES
----------------------
   0 C :   -0.053068
   1 C :   -0.053045
   2 C :   -0.051612
   3 C :   -0.046207
   4 C :   -0.046239
   5 C :   -0.051579
   6 H :    0.027414
   7 H :    0.027418
   8 H :    0.034136
   9 H :    0.034973
  10 H :    0.027323
  11 H :    0.026997
  12 H :    0.027006
  13 H :    0.027379
  14 H :    0.034994
  15 H :    0.034110

  Mayer bond orders larger than 0.100000
B(  0-C ,  1-C ) :   1.9482 B(  0-C ,  5-C ) :   1.0269 B(  0-C ,  6-H ) :   0.9640
B(  1-C ,  2-C ) :   1.0270 B(  1-C ,  7-H ) :   0.9639 B(  2-C ,  3-C ) :   1.0758
B(  2-C ,  8-H ) :   0.9381 B(  2-C ,  9-H ) :   0.9264 B(  3-C ,  4-C ) :   1.0680
B(  3-C , 10-H ) :   0.9507 B(  3-C , 11-H ) :   0.9448 B(  4-C ,  5-C ) :   1.0758
B(  4-C , 12-H ) :   0.9448 B(  4-C , 13-H ) :   0.9507 B(  5-C , 14-H ) :   0.9264
B(  5-C , 15-H ) :   0.9382

Dispersion correction           -0.011879178
FINAL SINGLE POINT ENERGY      -234.206946175010

DIPOLE MOMENT
-------------
                                X             Y             Z
Electronic contribution:     -0.52217       1.81028      -0.26725
Nuclear contribution   :      0.55289      -1.91656       0.28301
                        -----------------------------------------
Total Dipole Moment    :      0.03072      -0.10629       0.01575
                        -----------------------------------------
Magnitude (a.u.)       :      0.11175
Magnitude (Debye)      :      0.28405

Rotational constants in cm-1:     0.158711     0.152081     0.085579
Rotational constants in MHz :  4758.021985  4559.269083  2565.607139

                             ****ORCA TERMINATED NORMALLY****
TOTAL RUN TIME: 0 days 0 hours 0 minutes 24 seconds 371 msec
