                         Program Version 5.0.4 -  RELEASE  -
|  1> ! Opt PBE0 RIJCOSX D3BJ def2-SVP def2/J
|  2> %output
|  3> xyzfile=True
|  4> end
|  5> %scf
|  6> maxiter 250
|  7> end
|  8> %output
|  9> Print[P_Hirshfeld] = 1
| 10> end
| 11> % maxcore
| 12> 4000
| 13> %pal nprocs 8
| 14> end
| 15> *xyz 0 1
| 16> C   -1.84131063   0.11946683  -0.13271314
| 17> C   -0.55956212   0.46227263  -0.32367388
| 18> C    0.55954643  -0.46218052  -0.22288172
| 19> C    1.84131671  -0.11945059  -0.41383891
| 20> H   -2.65019748   0.84858425  -0.21931570
| 21> H   -2.12239323  -0.90861368   0.11741069
| 22> H   -0.31106823   1.50113628  -0.57335412
| 23> H    0.31103042  -1.50103966   0.02679716
| 24> H    2.12253208   0.90859707  -0.66394151
| 25> H    2.65010603  -0.84867264  -0.32718887
| 26> *
| 27>
| 28>                          ****END OF INPUT****
 Total Charge           Charge          ....    0
 Multiplicity           Mult            ....    1
 Number of Electrons    NEL             ....   30
Dispersion correction           -0.005354069
FINAL SINGLE POINT ENERGY      -155.686077937794
Dispersion correction            ... done
                    ***********************HURRAY********************

CARTESIAN COORDINATES (ANGSTROEM)
---------------------------------
  C     -1.840778    0.119312   -0.132714
  C     -0.559385    0.462099   -0.323648
  C      0.559375   -0.462028   -0.222897
  C      1.840782   -0.119293   -0.413828
  H     -2.649237    0.848857   -0.219464
  H     -2.121787   -0.908712    0.117360
  H     -0.311345    1.501014   -0.573305
  H      0.311320   -1.500940    0.026760
  H      2.121882    0.908704   -0.663906
  H      2.649172   -0.848913   -0.327057

 Multiplicity           Mult            ....    1
 Number of Electrons    NEL             ....   30
 Basis Dimension        Dim             ....   86

ORBITAL ENERGIES
----------------

  NO   OCC          E(Eh)            E(eV)
   0   2.0000     -10.242640      -278.7164
   1   2.0000     -10.242453      -278.7113
   2   2.0000     -10.236345      -278.5451
   3   2.0000     -10.236318      -278.5444
   4   2.0000      -0.823179       -22.3998
   5   2.0000      -0.748541       -20.3688
   6   2.0000      -0.617019       -16.7899
   7   2.0000      -0.563019       -15.3205
   8   2.0000      -0.480234       -13.0678
   9   2.0000      -0.476156       -12.9569
  10   2.0000      -0.407201       -11.0805
  11   2.0000      -0.396620       -10.7926
  12   2.0000      -0.356172        -9.6919
  13   2.0000      -0.341620        -9.2960
  14   2.0000      -0.247680        -6.7397
  15   0.0000      -0.027790        -0.7562
  16   0.0000       0.078843         2.1454
  17   0.0000       0.089149         2.4259
  18   0.0000       0.098895         2.6911
  19   0.0000       0.106207         2.8900

MULLIKEN ATOMIC CHARGES
-----------------------
   0 C :   -0.079238
   1 C :   -0.050703
   2 C :   -0.050715
   3 C :   -0.079238
   4 H :    0.054768
   5 H :    0.047011
   6 H :    0.028168
   7 H :    0.028167
   8 H :    0.047011
   9 H :    0.054767
Sum of atomic charges:    0.0000000

LOEWDIN ATOMIC CHARGES
----------------------
   0 C :   -0.056662
   1 C :   -0.038024
   2 C :   -0.038026
   3 C :   -0.056665
   4 H :    0.031692
   5 H :    0.028699
   6 H :    0.034297
   7 H :    0.034297
   8 H :    0.028699
   9 H :    0.031693

  Mayer bond orders larger than 0.100000
B(  0-C ,  1-C ) :   1.9098 B(  0-C ,  3-C ) :   0.1258 B(  0-C ,  4-H ) :   0.9541
B(  0-C ,  5-H ) :   0.9577 B(  1-C ,  2-C ) :   1.1105 B(  1-C ,  6-H ) :   0.9628
B(  2-C ,  3-C ) :   1.9098 B(  2-C ,  7-H ) :   0.9628 B(  3-C ,  8-H ) :   0.9577
B(  3-C ,  9-H ) :   0.9541

Dispersion correction           -0.005354912
FINAL SINGLE POINT ENERGY      -155.686079192929

DIPOLE MOMENT
-------------
                                X             Y             Z
Electronic contribution:     -0.00002       0.00011      -0.00002
Nuclear contribution   :      0.00001      -0.00010       0.00002
                        -----------------------------------------
Total Dipole Moment    :     -0.00001       0.00000       0.00000
                        -----------------------------------------
Magnitude (a.u.)       :      0.00001
Magnitude (Debye)      :      0.00003

Rotational constants in cm-1:     1.401226     0.147273     0.133267
Rotational constants in MHz : 42007.709893  4415.142915  3995.231496

                             ****ORCA TERMINATED NORMALLY****
TOTAL RUN TIME: 0 days 0 hours 0 minutes 8 seconds 172 msec
