                         Program Version 5.0.4 -  RELEASE  -
|  1> ! Opt PBE0 RIJCOSX D3BJ def2-SVP def2/J
|  2> %output
|  3> xyzfile=True
|  4> end
|  5> %scf
|  6> maxiter 250
|  7> end
|  8> %output
|  9> Print[P_Hirshfeld] = 1
| 10> end
| 11> % maxcore
| 12> 4000
| 13> %pal nprocs 8
| 14> end
| 15> *xyz 0 1
| 16> C   -0.62998993  -0.20728924  -0.05023884
| 17> C    0.62971735   0.20722964   0.05016396
| 18> H   -1.40219792   0.40320815  -0.52875135
| 19> H   -0.95152668  -1.17741705   0.34152644
| 20> H    1.40217587  -0.40302037   0.52864457
| 21> H    0.95172132   1.17728887  -0.34144479
| 22> *
| 23>
| 24>                          ****END OF INPUT****
 Total Charge           Charge          ....    0
 Multiplicity           Mult            ....    1
 Number of Electrons    NEL             ....   16
Dispersion correction           -0.001899295
FINAL SINGLE POINT ENERGY       -78.427524545653
Dispersion correction            ... done
Dispersion correction           -0.001899410
FINAL SINGLE POINT ENERGY       -78.427527254839
Dispersion correction            ... done
Dispersion correction           -0.001899625
FINAL SINGLE POINT ENERGY       -78.427529363464
Dispersion correction            ... done
                    ***********************HURRAY********************

CARTESIAN COORDINATES (ANGSTROEM)
---------------------------------
  C     -0.630169   -0.207378   -0.050233
  C      0.630129    0.207378    0.050198
  H     -1.400378    0.404926   -0.529154
  H     -0.949210   -1.177781    0.342255
  H      1.400342   -0.404923    0.529118
  H      0.949186    1.177778   -0.342284

 Multiplicity           Mult            ....    1
 Number of Electrons    NEL             ....   16
 Basis Dimension        Dim             ....   48

ORBITAL ENERGIES
----------------

  NO   OCC          E(Eh)            E(eV)
   0   2.0000     -10.236255      -278.5427
   1   2.0000     -10.235466      -278.5212
   2   2.0000      -0.773693       -21.0533
   3   2.0000      -0.587475       -15.9860
   4   2.0000      -0.479642       -13.0517
   5   2.0000      -0.431830       -11.7507
   6   2.0000      -0.362961        -9.8767
   7   2.0000      -0.286705        -7.8016
   8   0.0000       0.013780         0.3750
   9   0.0000       0.096223         2.6184
  10   0.0000       0.114725         3.1218
  11   0.0000       0.128531         3.4975
  12   0.0000       0.200287         5.4501

MULLIKEN ATOMIC CHARGES
-----------------------
   0 C :   -0.115673
   1 C :   -0.115675
   2 H :    0.057760
   3 H :    0.057915
   4 H :    0.057759
   5 H :    0.057914
Sum of atomic charges:   -0.0000000

LOEWDIN ATOMIC CHARGES
----------------------
   0 C :   -0.060536
   1 C :   -0.060535
   2 H :    0.030252
   3 H :    0.030285
   4 H :    0.030251
   5 H :    0.030284

  Mayer bond orders larger than 0.100000
B(  0-C ,  1-C ) :   2.0654 B(  0-C ,  2-H ) :   0.9634 B(  0-C ,  3-H ) :   0.9634
B(  1-C ,  4-H ) :   0.9634 B(  1-C ,  5-H ) :   0.9634

Dispersion correction           -0.001899634
FINAL SINGLE POINT ENERGY       -78.427529372186

DIPOLE MOMENT
-------------
                                X             Y             Z
Electronic contribution:     -0.00001       0.00000      -0.00000
Nuclear contribution   :      0.00002       0.00000       0.00000
                        -----------------------------------------
Total Dipole Moment    :      0.00000       0.00000       0.00000
                        -----------------------------------------
Magnitude (a.u.)       :      0.00000
Magnitude (Debye)      :      0.00001

Rotational constants in cm-1:     4.822547     1.001383     0.829202
Rotational constants in MHz : 144576.315505 30020.705118 24858.860600

                             ****ORCA TERMINATED NORMALLY****
TOTAL RUN TIME: 0 days 0 hours 0 minutes 10 seconds 790 msec
