                         Program Version 5.0.4 -  RELEASE  -
|  1> ! EnGrad PBE0 RIJCOSX D3BJ def2-SVP def2/J
|  2> %output
|  3> xyzfile=True
|  4> end
|  5> %scf
|  6> maxiter 250
|  7> end
|  8> %output
|  9> Print[P_Hirshfeld] = 1
| 10> end
| 11> % maxcore
| 12> 4000
| 13> *xyz 0 2
| 14> O   -2.28041090  -0.74252109   1.30179385
| 15> O   -0.62859696  -0.10258392   0.92173240
| 16> C   -0.68728070   0.42421663  -0.36234038
| 17> C    0.36418886   1.21947371   0.33423837
| 18> C    1.57820896   0.46892307   0.24557724
| 19> C    1.28434305  -0.67930389  -0.42571829
| 20> C    0.00126507  -0.62646263  -1.18966126
| 21> H   -2.27625189  -0.29699570   2.16410435
| 22> H   -1.63959695   0.87698772  -0.66435587
| 23> H    0.18862922   2.17611292   0.82782686
| 24> H    2.50605239   0.69038982   0.77301470
| 25> H    1.98850197  -1.50984036  -0.52847767
| 26> H    0.17934517  -0.33804232  -2.24056612
| 27> H   -0.57840250  -1.56025878  -1.15718339
| 28> *
| 29>
| 30>                          ****END OF INPUT****

CARTESIAN COORDINATES (ANGSTROEM)
---------------------------------
  O     -2.280411   -0.742521    1.301794
  O     -0.628597   -0.102584    0.921732
  C     -0.687281    0.424217   -0.362340
  C      0.364189    1.219474    0.334238
  C      1.578209    0.468923    0.245577
  C      1.284343   -0.679304   -0.425718
  C      0.001265   -0.626463   -1.189661
  H     -2.276252   -0.296996    2.164104
  H     -1.639597    0.876988   -0.664356
  H      0.188629    2.176113    0.827827
  H      2.506052    0.690390    0.773015
  H      1.988502   -1.509840   -0.528478
  H      0.179345   -0.338042   -2.240566
  H     -0.578403   -1.560259   -1.157183

 Total Charge           Charge          ....    0
 Multiplicity           Mult            ....    2
 Number of Electrons    NEL             ....   53
 Basis Dimension        Dim             ....  133

ORBITAL ENERGIES
----------------
                 SPIN UP ORBITALS
  NO   OCC          E(Eh)            E(eV)
   0   1.0000     -19.239876      -523.5436
   1   1.0000     -19.185817      -522.0726
   2   1.0000     -10.295056      -280.1427
   3   1.0000     -10.293142      -280.0906
   4   1.0000     -10.255661      -279.0707
   5   1.0000     -10.246429      -278.8195
   6   1.0000     -10.242431      -278.7107
   7   1.0000      -1.077448       -29.3189
   8   1.0000      -0.945369       -25.7248
   9   1.0000      -0.850078       -23.1318
  10   1.0000      -0.752316       -20.4716
  11   1.0000      -0.703987       -19.1565
  12   1.0000      -0.589291       -16.0354
  13   1.0000      -0.570512       -15.5244
  14   1.0000      -0.561486       -15.2788
  15   1.0000      -0.484029       -13.1711
  16   1.0000      -0.469089       -12.7646
  17   1.0000      -0.426562       -11.6073
  18   1.0000      -0.419238       -11.4080
  19   1.0000      -0.411831       -11.2065
  20   1.0000      -0.400427       -10.8962
  21   1.0000      -0.377756       -10.2793
  22   1.0000      -0.369890       -10.0652
  23   1.0000      -0.317494        -8.6395
  24   1.0000      -0.293148        -7.9770
  25   1.0000      -0.264771        -7.2048
  26   1.0000      -0.208078        -5.6621
  27   0.0000      -0.041318        -1.1243
  28   0.0000       0.053791         1.4637
  29   0.0000       0.074597         2.0299
  30   0.0000       0.107663         2.9297
  31   0.0000       0.111110         3.0235

                 SPIN DOWN ORBITALS
  NO   OCC          E(Eh)            E(eV)
   0   1.0000     -19.237935      -523.4908
   1   1.0000     -19.165909      -521.5309
   2   1.0000     -10.293710      -280.1061
   3   1.0000     -10.290760      -280.0258
   4   1.0000     -10.250476      -278.9296
   5   1.0000     -10.249155      -278.8937
   6   1.0000     -10.242731      -278.7189
   7   1.0000      -1.073117       -29.2010
   8   1.0000      -0.901258       -24.5245
   9   1.0000      -0.841465       -22.8974
  10   1.0000      -0.750860       -20.4319
  11   1.0000      -0.697174       -18.9711
  12   1.0000      -0.586539       -15.9605
  13   1.0000      -0.568616       -15.4728
  14   1.0000      -0.557037       -15.1578
  15   1.0000      -0.475292       -12.9334
  16   1.0000      -0.464997       -12.6532
  17   1.0000      -0.419347       -11.4110
  18   1.0000      -0.417602       -11.3635
  19   1.0000      -0.408551       -11.1172
  20   1.0000      -0.389384       -10.5957
  21   1.0000      -0.372138       -10.1264
  22   1.0000      -0.353397        -9.6164
  23   1.0000      -0.295769        -8.0483
  24   1.0000      -0.262792        -7.1509
  25   1.0000      -0.246003        -6.6941
  26   0.0000      -0.067397        -1.8340
  27   0.0000      -0.006606        -0.1798
  28   0.0000       0.066184         1.8010
  29   0.0000       0.076042         2.0692
  30   0.0000       0.108929         2.9641

MULLIKEN ATOMIC CHARGES AND SPIN POPULATIONS
--------------------------------------------
   0 O :   -0.292465    0.688510
   1 O :   -0.310380   -0.017300
   2 C :    0.047098   -0.033570
   3 C :    0.036423    0.265814
   4 C :    0.013176   -0.208965
   5 C :   -0.102746    0.349962
   6 C :    0.125623   -0.024336
   7 H :    0.163099   -0.015343
   8 H :    0.047576    0.004586
   9 H :    0.060960   -0.012104
  10 H :    0.038010    0.008087
  11 H :    0.039499   -0.017496
  12 H :    0.059506    0.008260
  13 H :    0.074620    0.003895
Sum of atomic charges         :   -0.0000000

LOEWDIN ATOMIC CHARGES AND SPIN POPULATIONS
-------------------------------------------
   0 O :   -0.201132    0.643080
   1 O :   -0.111687    0.016247
   2 C :    0.052848   -0.013238
   3 C :    0.071708    0.202015
   4 C :   -0.052492   -0.132338
   5 C :    0.020848    0.272258
   6 C :   -0.047928   -0.004935
   7 H :    0.046344    0.004597
   8 H :    0.024814    0.002261
   9 H :    0.038093   -0.000340
  10 H :    0.036467    0.000280
  11 H :    0.029092   -0.000694
  12 H :    0.040519    0.007837
  13 H :    0.052507    0.002970

  Mayer bond orders larger than 0.100000
B(  0-O ,  1-O ) :   0.3663 B(  0-O ,  7-H ) :   0.9899 B(  1-O ,  2-C ) :   0.8795
B(  1-O ,  3-C ) :   0.6228 B(  1-O ,  5-C ) :   0.1119 B(  2-C ,  3-C ) :   0.9708
B(  2-C ,  6-C ) :   1.0000 B(  2-C ,  8-H ) :   0.9607 B(  3-C ,  4-C ) :   1.1026
B(  3-C ,  9-H ) :   0.9973 B(  4-C ,  5-C ) :   1.6728 B(  4-C , 10-H ) :   0.9960
B(  5-C ,  6-C ) :   1.0029 B(  5-C , 11-H ) :   0.9739 B(  6-C , 12-H ) :   0.9252
B(  6-C , 13-H ) :   0.9259

Dispersion correction           -0.009858300
FINAL SINGLE POINT ENERGY      -344.338432472074
Dispersion correction            ... done

DIPOLE MOMENT
-------------
                                X             Y             Z
Electronic contribution:     -0.59637       0.53150       1.58922
Nuclear contribution   :      1.34439       0.27583      -1.93660
                        -----------------------------------------
Total Dipole Moment    :      0.74803       0.80732      -0.34738
                        -----------------------------------------
Magnitude (a.u.)       :      1.15412
Magnitude (Debye)      :      2.93353

Rotational constants in cm-1:     0.173471     0.075122     0.065809
Rotational constants in MHz :  5200.518794  2252.101888  1972.897073

                             ****ORCA TERMINATED NORMALLY****
TOTAL RUN TIME: 0 days 0 hours 1 minutes 18 seconds 734 msec
