                         Program Version 5.0.4 -  RELEASE  -
|  1> ! EnGrad PBE0 RIJCOSX D3BJ def2-SVP def2/J
|  2> %output
|  3> xyzfile=True
|  4> end
|  5> %scf
|  6> maxiter 250
|  7> end
|  8> %output
|  9> Print[P_Hirshfeld] = 1
| 10> end
| 11> % maxcore
| 12> 4000
| 13> *xyz 0 2
| 14> O   -2.33557426  -0.76728001   1.31401965
| 15> O   -0.64643259   0.01336731   0.97925477
| 16> C   -0.66817671   0.41766909  -0.35742766
| 17> C    0.32838333   1.17933510   0.33677535
| 18> C    1.58232372   0.44492710   0.23124933
| 19> C    1.38018777  -0.68827478  -0.47872511
| 20> C   -0.00263514  -0.61543633  -1.19788271
| 21> H   -2.27672868  -0.30698024   2.15889593
| 22> H   -1.63992477   0.87531490  -0.66264243
| 23> H    0.18699343   2.17128094   0.83006859
| 24> H    2.50477647   0.68935473   0.77438128
| 25> H    1.98768960  -1.50970982  -0.52755704
| 26> H    0.17925101  -0.34385636  -2.24275803
| 27> H   -0.57979349  -1.55923707  -1.15744633
| 28> *
| 29>
| 30>                          ****END OF INPUT****

CARTESIAN COORDINATES (ANGSTROEM)
---------------------------------
  O     -2.335574   -0.767280    1.314020
  O     -0.646433    0.013367    0.979255
  C     -0.668177    0.417669   -0.357428
  C      0.328383    1.179335    0.336775
  C      1.582324    0.444927    0.231249
  C      1.380188   -0.688275   -0.478725
  C     -0.002635   -0.615436   -1.197883
  H     -2.276729   -0.306980    2.158896
  H     -1.639925    0.875315   -0.662642
  H      0.186993    2.171281    0.830069
  H      2.504776    0.689355    0.774381
  H      1.987690   -1.509710   -0.527557
  H      0.179251   -0.343856   -2.242758
  H     -0.579793   -1.559237   -1.157446

 Total Charge           Charge          ....    0
 Multiplicity           Mult            ....    2
 Number of Electrons    NEL             ....   53
 Basis Dimension        Dim             ....  133

ORBITAL ENERGIES
----------------
                 SPIN UP ORBITALS
  NO   OCC          E(Eh)            E(eV)
   0   1.0000     -19.230925      -523.3001
   1   1.0000     -19.192675      -522.2592
   2   1.0000     -10.299312      -280.2585
   3   1.0000     -10.289738      -279.9980
   4   1.0000     -10.251659      -278.9618
   5   1.0000     -10.247504      -278.8488
   6   1.0000     -10.244719      -278.7730
   7   1.0000      -1.082832       -29.4654
   8   1.0000      -0.954891       -25.9839
   9   1.0000      -0.847699       -23.0671
  10   1.0000      -0.743778       -20.2392
  11   1.0000      -0.705749       -19.2044
  12   1.0000      -0.590859       -16.0781
  13   1.0000      -0.575596       -15.6628
  14   1.0000      -0.558060       -15.1856
  15   1.0000      -0.481899       -13.1131
  16   1.0000      -0.468556       -12.7501
  17   1.0000      -0.429591       -11.6898
  18   1.0000      -0.421968       -11.4823
  19   1.0000      -0.406183       -11.0528
  20   1.0000      -0.404492       -11.0068
  21   1.0000      -0.371603       -10.1118
  22   1.0000      -0.366738        -9.9795
  23   1.0000      -0.315730        -8.5915
  24   1.0000      -0.302030        -8.2187
  25   1.0000      -0.269512        -7.3338
  26   1.0000      -0.234040        -6.3685
  27   0.0000      -0.027171        -0.7394
  28   0.0000       0.070918         1.9298
  29   0.0000       0.081363         2.2140
  30   0.0000       0.106055         2.8859
  31   0.0000       0.111865         3.0440

                 SPIN DOWN ORBITALS
  NO   OCC          E(Eh)            E(eV)
   0   1.0000     -19.228456      -523.2329
   1   1.0000     -19.169310      -521.6234
   2   1.0000     -10.296541      -280.1831
   3   1.0000     -10.290128      -280.0086
   4   1.0000     -10.249394      -278.9002
   5   1.0000     -10.248633      -278.8795
   6   1.0000     -10.244874      -278.7772
   7   1.0000      -1.078304       -29.3421
   8   1.0000      -0.898943       -24.4615
   9   1.0000      -0.841925       -22.9099
  10   1.0000      -0.743285       -20.2258
  11   1.0000      -0.699723       -19.0404
  12   1.0000      -0.588975       -16.0268
  13   1.0000      -0.573440       -15.6041
  14   1.0000      -0.555670       -15.1205
  15   1.0000      -0.474548       -12.9131
  16   1.0000      -0.462496       -12.5851
  17   1.0000      -0.423118       -11.5136
  18   1.0000      -0.414949       -11.2913
  19   1.0000      -0.405608       -11.0371
  20   1.0000      -0.389102       -10.5880
  21   1.0000      -0.364307        -9.9133
  22   1.0000      -0.354106        -9.6357
  23   1.0000      -0.296693        -8.0734
  24   1.0000      -0.264819        -7.2061
  25   1.0000      -0.249380        -6.7860
  26   0.0000      -0.073414        -1.9977
  27   0.0000      -0.003280        -0.0893
  28   0.0000       0.073652         2.0042
  29   0.0000       0.089822         2.4442
  30   0.0000       0.107022         2.9122

MULLIKEN ATOMIC CHARGES AND SPIN POPULATIONS
--------------------------------------------
   0 O :   -0.263135    0.823786
   1 O :   -0.349743    0.006939
   2 C :    0.068460   -0.021918
   3 C :    0.034638    0.158849
   4 C :    0.014617   -0.122506
   5 C :   -0.072738    0.190812
   6 C :    0.086209   -0.013504
   7 H :    0.165210   -0.018943
   8 H :    0.054772    0.003408
   9 H :    0.073382   -0.007420
  10 H :    0.038992    0.004790
  11 H :    0.009764   -0.008769
  12 H :    0.063362    0.003280
  13 H :    0.076210    0.001196
Sum of atomic charges         :    0.0000000

LOEWDIN ATOMIC CHARGES AND SPIN POPULATIONS
-------------------------------------------
   0 O :   -0.169379    0.777429
   1 O :   -0.149042    0.034639
   2 C :    0.044100   -0.008335
   3 C :    0.076662    0.120549
   4 C :   -0.051136   -0.078560
   5 C :    0.031923    0.146710
   6 C :   -0.042582   -0.003436
   7 H :    0.043411    0.004514
   8 H :    0.029205    0.001762
   9 H :    0.044634   -0.000891
  10 H :    0.035356    0.000300
  11 H :    0.014002    0.001064
  12 H :    0.040796    0.003254
  13 H :    0.052050    0.000999

  Mayer bond orders larger than 0.100000
B(  0-O ,  1-O ) :   0.2283 B(  0-O ,  7-H ) :   0.9905 B(  1-O ,  2-C ) :   0.9047
B(  1-O ,  3-C ) :   0.7394 B(  2-C ,  3-C ) :   0.9910 B(  2-C ,  6-C ) :   1.0131
B(  2-C ,  8-H ) :   0.9491 B(  3-C ,  4-C ) :   1.0477 B(  3-C ,  9-H ) :   0.9843
B(  4-C ,  5-C ) :   1.7539 B(  4-C , 10-H ) :   0.9943 B(  5-C ,  6-C ) :   0.9923
B(  5-C , 11-H ) :   0.9918 B(  6-C , 12-H ) :   0.9321 B(  6-C , 13-H ) :   0.9280

Dispersion correction           -0.009824583
FINAL SINGLE POINT ENERGY      -344.351869491290
Dispersion correction            ... done

DIPOLE MOMENT
-------------
                                X             Y             Z
Electronic contribution:     -0.60487       0.52506       1.61994
Nuclear contribution   :      1.35237       0.21560      -1.95663
                        -----------------------------------------
Total Dipole Moment    :      0.74750       0.74066      -0.33669
                        -----------------------------------------
Magnitude (a.u.)       :      1.10485
Magnitude (Debye)      :      2.80831

Rotational constants in cm-1:     0.173327     0.072500     0.063488
Rotational constants in MHz :  5196.203503  2173.499148  1903.308325

                             ****ORCA TERMINATED NORMALLY****
TOTAL RUN TIME: 0 days 0 hours 1 minutes 14 seconds 524 msec
