                         Program Version 5.0.4 -  RELEASE  -
|  1> ! EnGrad PBE0 RIJCOSX D3BJ def2-SVP def2/J
|  2> %output
|  3> xyzfile=True
|  4> end
|  5> %scf
|  6> maxiter 250
|  7> end
|  8> %output
|  9> Print[P_Hirshfeld] = 1
| 10> end
| 11> % maxcore
| 12> 4000
| 13> *xyz 0 2
| 14> O   -2.34049154  -0.77263578   1.31224480
| 15> O   -0.63938183   0.02424631   0.97662495
| 16> C   -0.68013806   0.41841167  -0.36112984
| 17> C    0.33310459   1.18349277   0.34678344
| 18> C    1.58674503   0.44374543   0.23089611
| 19> C    1.36140039  -0.67159364  -0.48082685
| 20> C    0.00444007  -0.62184836  -1.19248743
| 21> H   -2.27826110  -0.31066310   2.15953303
| 22> H   -1.63572608   0.87499438  -0.66271988
| 23> H    0.18921940   2.16839382   0.82495315
| 24> H    2.50349150   0.68942598   0.77380147
| 25> H    1.99878036  -1.52393357  -0.52808346
| 26> H    0.17721900  -0.34370664  -2.24363296
| 27> H   -0.57998297  -1.55780609  -1.15581978
| 28> *
| 29>
| 30>                          ****END OF INPUT****

CARTESIAN COORDINATES (ANGSTROEM)
---------------------------------
  O     -2.340492   -0.772636    1.312245
  O     -0.639382    0.024246    0.976625
  C     -0.680138    0.418412   -0.361130
  C      0.333105    1.183493    0.346783
  C      1.586745    0.443745    0.230896
  C      1.361400   -0.671594   -0.480827
  C      0.004440   -0.621848   -1.192487
  H     -2.278261   -0.310663    2.159533
  H     -1.635726    0.874994   -0.662720
  H      0.189219    2.168394    0.824953
  H      2.503491    0.689426    0.773801
  H      1.998780   -1.523934   -0.528083
  H      0.177219   -0.343707   -2.243633
  H     -0.579983   -1.557806   -1.155820

 Total Charge           Charge          ....    0
 Multiplicity           Mult            ....    2
 Number of Electrons    NEL             ....   53
 Basis Dimension        Dim             ....  133

ORBITAL ENERGIES
----------------
                 SPIN UP ORBITALS
  NO   OCC          E(Eh)            E(eV)
   0   1.0000     -19.229726      -523.2675
   1   1.0000     -19.194211      -522.3010
   2   1.0000     -10.298993      -280.2499
   3   1.0000     -10.289807      -279.9999
   4   1.0000     -10.251848      -278.9670
   5   1.0000     -10.245328      -278.7895
   6   1.0000     -10.244167      -278.7580
   7   1.0000      -1.083189       -29.4751
   8   1.0000      -0.955066       -25.9887
   9   1.0000      -0.848883       -23.0993
  10   1.0000      -0.745004       -20.2726
  11   1.0000      -0.701122       -19.0785
  12   1.0000      -0.590604       -16.0711
  13   1.0000      -0.572517       -15.5790
  14   1.0000      -0.559023       -15.2118
  15   1.0000      -0.481391       -13.0993
  16   1.0000      -0.467684       -12.7263
  17   1.0000      -0.428910       -11.6712
  18   1.0000      -0.418184       -11.3794
  19   1.0000      -0.408933       -11.1276
  20   1.0000      -0.406428       -11.0595
  21   1.0000      -0.375278       -10.2118
  22   1.0000      -0.364511        -9.9188
  23   1.0000      -0.315872        -8.5953
  24   1.0000      -0.301632        -8.2078
  25   1.0000      -0.270404        -7.3581
  26   1.0000      -0.236306        -6.4302
  27   0.0000      -0.023641        -0.6433
  28   0.0000       0.072219         1.9652
  29   0.0000       0.084534         2.3003
  30   0.0000       0.106218         2.8903
  31   0.0000       0.110876         3.0171

                 SPIN DOWN ORBITALS
  NO   OCC          E(Eh)            E(eV)
   0   1.0000     -19.227082      -523.1955
   1   1.0000     -19.170472      -521.6551
   2   1.0000     -10.296468      -280.1811
   3   1.0000     -10.290174      -280.0099
   4   1.0000     -10.249535      -278.9040
   5   1.0000     -10.246649      -278.8255
   6   1.0000     -10.244300      -278.7616
   7   1.0000      -1.078593       -29.3500
   8   1.0000      -0.897583       -24.4245
   9   1.0000      -0.843388       -22.9498
  10   1.0000      -0.744460       -20.2578
  11   1.0000      -0.695554       -18.9270
  12   1.0000      -0.589021       -16.0281
  13   1.0000      -0.570470       -15.5233
  14   1.0000      -0.556441       -15.1415
  15   1.0000      -0.473695       -12.8899
  16   1.0000      -0.461909       -12.5692
  17   1.0000      -0.418442       -11.3864
  18   1.0000      -0.415693       -11.3116
  19   1.0000      -0.407854       -11.0983
  20   1.0000      -0.391721       -10.6593
  21   1.0000      -0.367613       -10.0033
  22   1.0000      -0.350682        -9.5425
  23   1.0000      -0.295565        -8.0427
  24   1.0000      -0.263990        -7.1835
  25   1.0000      -0.250178        -6.8077
  26   0.0000      -0.072778        -1.9804
  27   0.0000      -0.002492        -0.0678
  28   0.0000       0.074585         2.0296
  29   0.0000       0.092734         2.5234
  30   0.0000       0.107378         2.9219

MULLIKEN ATOMIC CHARGES AND SPIN POPULATIONS
--------------------------------------------
   0 O :   -0.261847    0.839296
   1 O :   -0.353273    0.014783
   2 C :    0.067027   -0.020391
   3 C :    0.038842    0.142237
   4 C :    0.019632   -0.102832
   5 C :   -0.099016    0.161592
   6 C :    0.097326   -0.011379
   7 H :    0.166929   -0.019739
   8 H :    0.049110    0.002628
   9 H :    0.067112   -0.006559
  10 H :    0.036714    0.004009
  11 H :    0.032002   -0.007828
  12 H :    0.063976    0.003109
  13 H :    0.075469    0.001076
Sum of atomic charges         :   -0.0000000

LOEWDIN ATOMIC CHARGES AND SPIN POPULATIONS
-------------------------------------------
   0 O :   -0.167710    0.793479
   1 O :   -0.152499    0.040872
   2 C :    0.050981   -0.008201
   3 C :    0.080259    0.108920
   4 C :   -0.053143   -0.065469
   5 C :    0.020249    0.124248
   6 C :   -0.045153   -0.002681
   7 H :    0.045661    0.003976
   8 H :    0.025556    0.001230
   9 H :    0.040068   -0.000588
  10 H :    0.034992    0.000214
  11 H :    0.025849    0.000009
  12 H :    0.042804    0.003082
  13 H :    0.052087    0.000909

  Mayer bond orders larger than 0.100000
B(  0-O ,  1-O ) :   0.2124 B(  0-O ,  7-H ) :   0.9891 B(  1-O ,  2-C ) :   0.9081
B(  1-O ,  3-C ) :   0.7544 B(  2-C ,  3-C ) :   0.9884 B(  2-C ,  6-C ) :   1.0059
B(  2-C ,  8-H ) :   0.9555 B(  3-C ,  4-C ) :   1.0374 B(  3-C ,  9-H ) :   0.9866
B(  4-C ,  5-C ) :   1.7697 B(  4-C , 10-H ) :   0.9961 B(  5-C ,  6-C ) :   0.9984
B(  5-C , 11-H ) :   0.9802 B(  6-C , 12-H ) :   0.9294 B(  6-C , 13-H ) :   0.9265

Dispersion correction           -0.009818946
FINAL SINGLE POINT ENERGY      -344.359167240107
Dispersion correction            ... done

DIPOLE MOMENT
-------------
                                X             Y             Z
Electronic contribution:     -0.65296       0.55840       1.63760
Nuclear contribution   :      1.37261       0.18167      -1.96367
                        -----------------------------------------
Total Dipole Moment    :      0.71966       0.74007      -0.32607
                        -----------------------------------------
Magnitude (a.u.)       :      1.08256
Magnitude (Debye)      :      2.75164

Rotational constants in cm-1:     0.173320     0.072623     0.063434
Rotational constants in MHz :  5195.991687  2177.172637  1901.718154

                             ****ORCA TERMINATED NORMALLY****
TOTAL RUN TIME: 0 days 0 hours 1 minutes 20 seconds 285 msec
