                         Program Version 5.0.4 -  RELEASE  -
|  1> ! EnGrad PBE0 RIJCOSX D3BJ def2-SVP def2/J
|  2> %output
|  3> xyzfile=True
|  4> end
|  5> %scf
|  6> maxiter 250
|  7> end
|  8> %output
|  9> Print[P_Hirshfeld] = 1
| 10> end
| 11> % maxcore
| 12> 4000
| 13> %pal nprocs 8
| 14> end
| 15> *xyz 0 2
| 16> O   -2.58148000  -0.38914000   0.74681000
| 17> O   -1.35598000   0.21684000   1.15444000
| 18> C   -0.62172000   0.48691000  -0.02397000
| 19> C    0.58045000   1.28604000   0.38299000
| 20> C    1.74193000   0.59377000   0.06710000
| 21> C    1.44893000  -0.61491000  -0.55303000
| 22> C   -0.03336000  -0.77666000  -0.69185000
| 23> H   -2.58640000  -1.16996000   1.31665000
| 24> H   -1.28391000   1.04649000  -0.71184000
| 25> H    0.51170000   2.25410000   0.87951000
| 26> H    2.75182000   0.95520000   0.27317000
| 27> H    2.18296000  -1.34205000  -0.90409000
| 28> H   -0.33774000  -0.86733000  -1.74901000
| 29> H   -0.41720000  -1.67920000  -0.18690000
| 30> *
| 31>
| 32>                          ****END OF INPUT****

CARTESIAN COORDINATES (ANGSTROEM)
---------------------------------
  O     -2.581480   -0.389140    0.746810
  O     -1.355980    0.216840    1.154440
  C     -0.621720    0.486910   -0.023970
  C      0.580450    1.286040    0.382990
  C      1.741930    0.593770    0.067100
  C      1.448930   -0.614910   -0.553030
  C     -0.033360   -0.776660   -0.691850
  H     -2.586400   -1.169960    1.316650
  H     -1.283910    1.046490   -0.711840
  H      0.511700    2.254100    0.879510
  H      2.751820    0.955200    0.273170
  H      2.182960   -1.342050   -0.904090
  H     -0.337740   -0.867330   -1.749010
  H     -0.417200   -1.679200   -0.186900

 Total Charge           Charge          ....    0
 Multiplicity           Mult            ....    2
 Number of Electrons    NEL             ....   53
 Basis Dimension        Dim             ....  133

ORBITAL ENERGIES
----------------
                 SPIN UP ORBITALS
  NO   OCC          E(Eh)            E(eV)
   0   1.0000     -19.257641      -524.0270
   1   1.0000     -19.254527      -523.9423
   2   1.0000     -10.285340      -279.8783
   3   1.0000     -10.247218      -278.8410
   4   1.0000     -10.243417      -278.7375
   5   1.0000     -10.240236      -278.6510
   6   1.0000     -10.237429      -278.5746
   7   1.0000      -1.144070       -31.1317
   8   1.0000      -0.933487       -25.4015
   9   1.0000      -0.861953       -23.4549
  10   1.0000      -0.733367       -19.9559
  11   1.0000      -0.709770       -19.3138
  12   1.0000      -0.587414       -15.9843
  13   1.0000      -0.563025       -15.3207
  14   1.0000      -0.547391       -14.8953
  15   1.0000      -0.532703       -14.4956
  16   1.0000      -0.483582       -13.1589
  17   1.0000      -0.453118       -12.3300
  18   1.0000      -0.421579       -11.4717
  19   1.0000      -0.404096       -10.9960
  20   1.0000      -0.394231       -10.7276
  21   1.0000      -0.387441       -10.5428
  22   1.0000      -0.361918        -9.8483
  23   1.0000      -0.334036        -9.0896
  24   1.0000      -0.320790        -8.7291
  25   1.0000      -0.261731        -7.1221
  26   1.0000      -0.200413        -5.4535
  27   0.0000       0.024677         0.6715
  28   0.0000       0.061335         1.6690
  29   0.0000       0.080255         2.1838
  30   0.0000       0.096441         2.6243
  31   0.0000       0.113571         3.0904

                 SPIN DOWN ORBITALS
  NO   OCC          E(Eh)            E(eV)
   0   1.0000     -19.256780      -524.0036
   1   1.0000     -19.254309      -523.9364
   2   1.0000     -10.286017      -279.8967
   3   1.0000     -10.244417      -278.7648
   4   1.0000     -10.238088      -278.5925
   5   1.0000     -10.236901      -278.5602
   6   1.0000     -10.233324      -278.4629
   7   1.0000      -1.142779       -31.0966
   8   1.0000      -0.930371       -25.3167
   9   1.0000      -0.852991       -23.2111
  10   1.0000      -0.727142       -19.7865
  11   1.0000      -0.695836       -18.9347
  12   1.0000      -0.578659       -15.7461
  13   1.0000      -0.559056       -15.2127
  14   1.0000      -0.541637       -14.7387
  15   1.0000      -0.528635       -14.3849
  16   1.0000      -0.479906       -13.0589
  17   1.0000      -0.449977       -12.2445
  18   1.0000      -0.414231       -11.2718
  19   1.0000      -0.398781       -10.8514
  20   1.0000      -0.390291       -10.6204
  21   1.0000      -0.382315       -10.4033
  22   1.0000      -0.358626        -9.7587
  23   1.0000      -0.325504        -8.8574
  24   1.0000      -0.300606        -8.1799
  25   1.0000      -0.260886        -7.0991
  26   0.0000      -0.062835        -1.7098
  27   0.0000       0.037942         1.0324
  28   0.0000       0.066902         1.8205
  29   0.0000       0.088090         2.3970
  30   0.0000       0.100101         2.7239

MULLIKEN ATOMIC CHARGES AND SPIN POPULATIONS
--------------------------------------------
   0 O :   -0.166025    0.008376
   1 O :   -0.274231    0.011515
   2 C :    0.132691   -0.049835
   3 C :   -0.064420    0.701647
   4 C :   -0.003506   -0.325611
   5 C :   -0.112309    0.708795
   6 C :    0.043576   -0.064530
   7 H :    0.192362   -0.000231
   8 H :    0.045193    0.021439
   9 H :    0.041622   -0.033944
  10 H :    0.030222    0.011192
  11 H :    0.035557   -0.035097
  12 H :    0.058147    0.024034
  13 H :    0.041119    0.022248
Sum of atomic charges         :    0.0000000

LOEWDIN ATOMIC CHARGES AND SPIN POPULATIONS
-------------------------------------------
   0 O :   -0.062868    0.006659
   1 O :   -0.097006    0.018236
   2 C :    0.041788   -0.001220
   3 C :   -0.028498    0.547886
   4 C :   -0.042318   -0.175144
   5 C :   -0.017543    0.559020
   6 C :   -0.056593   -0.010023
   7 H :    0.073289    0.000224
   8 H :    0.021963    0.018539
   9 H :    0.029301   -0.001583
  10 H :    0.034200    0.000389
  11 H :    0.025036   -0.001444
  12 H :    0.041480    0.020584
  13 H :    0.037770    0.017876

  Mayer bond orders larger than 0.100000
B(  0-O ,  1-O ) :   0.9291 B(  0-O ,  7-H ) :   0.9732 B(  1-O ,  2-C ) :   0.9211
B(  2-C ,  3-C ) :   1.0253 B(  2-C ,  6-C ) :   1.0332 B(  2-C ,  8-H ) :   0.9213
B(  3-C ,  4-C ) :   1.3988 B(  3-C ,  5-C ) :   0.1293 B(  3-C ,  9-H ) :   0.9884
B(  4-C ,  5-C ) :   1.4116 B(  4-C , 10-H ) :   0.9953 B(  5-C ,  6-C ) :   1.0333
B(  5-C , 11-H ) :   0.9865 B(  6-C , 12-H ) :   0.9273 B(  6-C , 13-H ) :   0.9189

Dispersion correction           -0.009952863
FINAL SINGLE POINT ENERGY      -344.396843771232
Dispersion correction            ... done

DIPOLE MOMENT
-------------
                                X             Y             Z
Electronic contribution:     -1.99759       0.81138       2.10572
Nuclear contribution   :      2.35886      -1.29793      -2.28493
                        -----------------------------------------
Total Dipole Moment    :      0.36127      -0.48655      -0.17921
                        -----------------------------------------
Magnitude (a.u.)       :      0.63195
Magnitude (Debye)      :      1.60628

Rotational constants in cm-1:     0.209774     0.066325     0.054644
Rotational constants in MHz :  6288.867077  1988.383589  1638.195525

                             ****ORCA TERMINATED NORMALLY****
TOTAL RUN TIME: 0 days 0 hours 0 minutes 10 seconds 333 msec
