                         Program Version 5.0.4 -  RELEASE  -
|  1> ! EnGrad PBE0 RIJCOSX D3BJ def2-SVP def2/J
|  2> %output
|  3> xyzfile=True
|  4> end
|  5> %scf
|  6> maxiter 250
|  7> end
|  8> %output
|  9> Print[P_Hirshfeld] = 1
| 10> end
| 11> % maxcore
| 12> 4000
| 13> *xyz 0 2
| 14> O   -2.39849000  -0.77514000   0.89316000
| 15> O   -1.01364000   0.14896000   1.11434000
| 16> C   -0.64662000   0.54475000  -0.17376000
| 17> C    0.55317000   1.37528000   0.19241000
| 18> C    1.66365000   0.53565000   0.17856000
| 19> C    1.32194000  -0.69476000  -0.36428000
| 20> C   -0.06777000  -0.66237000  -0.90740000
| 21> H   -2.37355000  -1.13001000   1.79417000
| 22> H   -1.47045000   1.07209000  -0.68277000
| 23> H    0.49405000   2.39068000   0.58323000
| 24> H    2.65627000   0.80202000   0.54709000
| 25> H    2.00650000  -1.53801000  -0.47617000
| 26> H   -0.05116000  -0.51477000  -2.00358000
| 27> H   -0.67391000  -1.55427000  -0.69497000
| 28> *
| 29>
| 30>                          ****END OF INPUT****

CARTESIAN COORDINATES (ANGSTROEM)
---------------------------------
  O     -2.398490   -0.775140    0.893160
  O     -1.013640    0.148960    1.114340
  C     -0.646620    0.544750   -0.173760
  C      0.553170    1.375280    0.192410
  C      1.663650    0.535650    0.178560
  C      1.321940   -0.694760   -0.364280
  C     -0.067770   -0.662370   -0.907400
  H     -2.373550   -1.130010    1.794170
  H     -1.470450    1.072090   -0.682770
  H      0.494050    2.390680    0.583230
  H      2.656270    0.802020    0.547090
  H      2.006500   -1.538010   -0.476170
  H     -0.051160   -0.514770   -2.003580
  H     -0.673910   -1.554270   -0.694970

 Total Charge           Charge          ....    0
 Multiplicity           Mult            ....    2
 Number of Electrons    NEL             ....   53
 Basis Dimension        Dim             ....  133

ORBITAL ENERGIES
----------------
                 SPIN UP ORBITALS
  NO   OCC          E(Eh)            E(eV)
   0   1.0000     -19.262279      -524.1533
   1   1.0000     -19.245613      -523.6998
   2   1.0000     -10.286440      -279.9083
   3   1.0000     -10.253899      -279.0228
   4   1.0000     -10.251858      -278.9672
   5   1.0000     -10.244108      -278.7563
   6   1.0000     -10.233251      -278.4609
   7   1.0000      -1.068088       -29.0642
   8   1.0000      -0.954706       -25.9789
   9   1.0000      -0.864383       -23.5211
  10   1.0000      -0.736848       -20.0507
  11   1.0000      -0.707013       -19.2388
  12   1.0000      -0.580818       -15.8049
  13   1.0000      -0.560815       -15.2606
  14   1.0000      -0.542601       -14.7649
  15   1.0000      -0.494400       -13.4533
  16   1.0000      -0.480790       -13.0829
  17   1.0000      -0.440345       -11.9824
  18   1.0000      -0.409273       -11.1369
  19   1.0000      -0.401866       -10.9353
  20   1.0000      -0.397604       -10.8193
  21   1.0000      -0.386613       -10.5203
  22   1.0000      -0.351916        -9.5761
  23   1.0000      -0.337994        -9.1973
  24   1.0000      -0.322728        -8.7819
  25   1.0000      -0.268584        -7.3085
  26   1.0000      -0.207799        -5.6545
  27   0.0000      -0.056912        -1.5487
  28   0.0000       0.036629         0.9967
  29   0.0000       0.080131         2.1805
  30   0.0000       0.095284         2.5928
  31   0.0000       0.114342         3.1114

                 SPIN DOWN ORBITALS
  NO   OCC          E(Eh)            E(eV)
   0   1.0000     -19.262643      -524.1632
   1   1.0000     -19.242180      -523.6063
   2   1.0000     -10.286916      -279.9212
   3   1.0000     -10.248095      -278.8649
   4   1.0000     -10.244570      -278.7689
   5   1.0000     -10.241922      -278.6969
   6   1.0000     -10.233840      -278.4769
   7   1.0000      -1.065389       -28.9907
   8   1.0000      -0.947760       -25.7899
   9   1.0000      -0.855492       -23.2791
  10   1.0000      -0.730685       -19.8830
  11   1.0000      -0.693312       -18.8660
  12   1.0000      -0.574034       -15.6203
  13   1.0000      -0.556186       -15.1346
  14   1.0000      -0.536157       -14.5896
  15   1.0000      -0.488371       -13.2892
  16   1.0000      -0.477968       -13.0062
  17   1.0000      -0.435075       -11.8390
  18   1.0000      -0.404967       -11.0197
  19   1.0000      -0.398177       -10.8349
  20   1.0000      -0.392432       -10.6786
  21   1.0000      -0.381921       -10.3926
  22   1.0000      -0.344282        -9.3684
  23   1.0000      -0.332470        -9.0470
  24   1.0000      -0.301335        -8.1998
  25   1.0000      -0.266670        -7.2565
  26   0.0000      -0.084320        -2.2945
  27   0.0000      -0.035635        -0.9697
  28   0.0000       0.061118         1.6631
  29   0.0000       0.082739         2.2514
  30   0.0000       0.097601         2.6559

MULLIKEN ATOMIC CHARGES AND SPIN POPULATIONS
--------------------------------------------
   0 O :   -0.217675    0.120145
   1 O :   -0.260973   -0.040710
   2 C :    0.067401   -0.039911
   3 C :   -0.041359    0.659142
   4 C :    0.006791   -0.309369
   5 C :   -0.088246    0.679593
   6 C :    0.067268   -0.056881
   7 H :    0.189788   -0.002693
   8 H :    0.041985    0.005882
   9 H :    0.047412   -0.031654
  10 H :    0.031484    0.010907
  11 H :    0.036071   -0.033511
  12 H :    0.058926    0.031430
  13 H :    0.061128    0.007629
Sum of atomic charges         :   -0.0000000

LOEWDIN ATOMIC CHARGES AND SPIN POPULATIONS
-------------------------------------------
   0 O :   -0.110791    0.108671
   1 O :   -0.088395   -0.024690
   2 C :    0.037725    0.002910
   3 C :   -0.015492    0.512950
   4 C :   -0.037034   -0.167306
   5 C :    0.006292    0.539207
   6 C :   -0.055370   -0.007729
   7 H :    0.069776    0.001170
   8 H :    0.019227    0.004992
   9 H :    0.030407   -0.001135
  10 H :    0.035086    0.000678
  11 H :    0.025955   -0.001527
  12 H :    0.042838    0.024925
  13 H :    0.039775    0.006886

  Mayer bond orders larger than 0.100000
B(  0-O ,  1-O ) :   0.8681 B(  0-O ,  7-H ) :   0.9728 B(  1-O ,  2-C ) :   0.9487
B(  2-C ,  3-C ) :   0.9979 B(  2-C ,  6-C ) :   1.0231 B(  2-C ,  8-H ) :   0.9419
B(  3-C ,  4-C ) :   1.3532 B(  3-C ,  9-H ) :   0.9898 B(  4-C ,  5-C ) :   1.4282
B(  4-C , 10-H ) :   0.9941 B(  5-C ,  6-C ) :   1.0039 B(  5-C , 11-H ) :   0.9821
B(  6-C , 12-H ) :   0.9215 B(  6-C , 13-H ) :   0.9265

Dispersion correction           -0.010123740
FINAL SINGLE POINT ENERGY      -344.373745457750
Dispersion correction            ... done

DIPOLE MOMENT
-------------
                                X             Y             Z
Electronic contribution:     -1.35123       0.54056       1.98997
Nuclear contribution   :      1.83715      -0.63207      -2.06184
                        -----------------------------------------
Total Dipole Moment    :      0.48592      -0.09151      -0.07187
                        -----------------------------------------
Magnitude (a.u.)       :      0.49966
Magnitude (Debye)      :      1.27003

Rotational constants in cm-1:     0.181930     0.071347     0.060924
Rotational constants in MHz :  5454.114721  2138.933185  1826.452890

                             ****ORCA TERMINATED NORMALLY****
TOTAL RUN TIME: 0 days 0 hours 1 minutes 14 seconds 74 msec
