                         Program Version 5.0.4 -  RELEASE  -
|  1> ! EnGrad PBE0 RIJCOSX D3BJ def2-SVP def2/J
|  2> %output
|  3> xyzfile=True
|  4> end
|  5> %scf
|  6> maxiter 250
|  7> end
|  8> %output
|  9> Print[P_Hirshfeld] = 1
| 10> end
| 11> % maxcore
| 12> 4000
| 13> *xyz 0 2
| 14> O   -2.27225083  -0.70170700   0.91571800
| 15> O   -1.14904489   0.07734825   1.10828062
| 16> C   -0.64849956   0.54637469  -0.17648891
| 17> C    0.55213887   1.37702276   0.18848111
| 18> C    1.66128051   0.53443909   0.18085221
| 19> C    1.34161270  -0.70490880  -0.37623483
| 20> C   -0.06858313  -0.65988792  -0.91226504
| 21> H   -2.36421075  -1.13040767   1.79942934
| 22> H   -1.47322732   1.07333412  -0.68233936
| 23> H    0.49371491   2.39281774   0.57883875
| 24> H    2.65255546   0.79841155   0.55278675
| 25> H    1.99836720  -1.54151620  -0.46626483
| 26> H   -0.04583043  -0.51078152  -2.00741100
| 27> H   -0.67814127  -1.55074935  -0.70377038
| 28> *
| 29>
| 30>                          ****END OF INPUT****

CARTESIAN COORDINATES (ANGSTROEM)
---------------------------------
  O     -2.272251   -0.701707    0.915718
  O     -1.149045    0.077348    1.108281
  C     -0.648500    0.546375   -0.176489
  C      0.552139    1.377023    0.188481
  C      1.661281    0.534439    0.180852
  C      1.341613   -0.704909   -0.376235
  C     -0.068583   -0.659888   -0.912265
  H     -2.364211   -1.130408    1.799429
  H     -1.473227    1.073334   -0.682339
  H      0.493715    2.392818    0.578839
  H      2.652555    0.798412    0.552787
  H      1.998367   -1.541516   -0.466265
  H     -0.045830   -0.510782   -2.007411
  H     -0.678141   -1.550749   -0.703770

 Total Charge           Charge          ....    0
 Multiplicity           Mult            ....    2
 Number of Electrons    NEL             ....   53
 Basis Dimension        Dim             ....  133

ORBITAL ENERGIES
----------------
                 SPIN UP ORBITALS
  NO   OCC          E(Eh)            E(eV)
   0   1.0000     -19.248530      -523.7791
   1   1.0000     -19.245879      -523.7070
   2   1.0000     -10.285689      -279.8878
   3   1.0000     -10.245136      -278.7843
   4   1.0000     -10.244290      -278.7613
   5   1.0000     -10.238930      -278.6155
   6   1.0000     -10.232991      -278.4538
   7   1.0000      -1.151335       -31.3294
   8   1.0000      -0.922967       -25.1152
   9   1.0000      -0.849574       -23.1181
  10   1.0000      -0.729958       -19.8632
  11   1.0000      -0.708099       -19.2684
  12   1.0000      -0.585151       -15.9228
  13   1.0000      -0.560692       -15.2572
  14   1.0000      -0.542821       -14.7709
  15   1.0000      -0.524036       -14.2598
  16   1.0000      -0.497189       -13.5292
  17   1.0000      -0.451407       -12.2834
  18   1.0000      -0.407176       -11.0798
  19   1.0000      -0.403496       -10.9797
  20   1.0000      -0.387495       -10.5443
  21   1.0000      -0.385921       -10.5015
  22   1.0000      -0.361117        -9.8265
  23   1.0000      -0.333935        -9.0868
  24   1.0000      -0.322288        -8.7699
  25   1.0000      -0.235773        -6.4157
  26   1.0000      -0.203778        -5.5451
  27   0.0000       0.027327         0.7436
  28   0.0000       0.070027         1.9055
  29   0.0000       0.088363         2.4045
  30   0.0000       0.112296         3.0557
  31   0.0000       0.125394         3.4122

                 SPIN DOWN ORBITALS
  NO   OCC          E(Eh)            E(eV)
   0   1.0000     -19.248252      -523.7716
   1   1.0000     -19.244656      -523.6737
   2   1.0000     -10.286211      -279.9020
   3   1.0000     -10.243186      -278.7313
   4   1.0000     -10.234785      -278.5027
   5   1.0000     -10.234258      -278.4883
   6   1.0000     -10.233583      -278.4699
   7   1.0000      -1.149575       -31.2815
   8   1.0000      -0.918330       -24.9890
   9   1.0000      -0.841411       -22.8959
  10   1.0000      -0.724138       -19.7048
  11   1.0000      -0.693323       -18.8663
  12   1.0000      -0.576969       -15.7001
  13   1.0000      -0.557537       -15.1714
  14   1.0000      -0.533902       -14.5282
  15   1.0000      -0.521812       -14.1992
  16   1.0000      -0.493785       -13.4366
  17   1.0000      -0.447507       -12.1773
  18   1.0000      -0.401518       -10.9259
  19   1.0000      -0.396927       -10.8009
  20   1.0000      -0.384542       -10.4639
  21   1.0000      -0.380885       -10.3644
  22   1.0000      -0.358888        -9.7658
  23   1.0000      -0.331293        -9.0150
  24   1.0000      -0.296386        -8.0651
  25   1.0000      -0.234478        -6.3805
  26   0.0000      -0.065356        -1.7784
  27   0.0000       0.046602         1.2681
  28   0.0000       0.072283         1.9669
  29   0.0000       0.091525         2.4905
  30   0.0000       0.116593         3.1726

MULLIKEN ATOMIC CHARGES AND SPIN POPULATIONS
--------------------------------------------
   0 O :   -0.164753    0.008908
   1 O :   -0.293443    0.020961
   2 C :    0.088600   -0.042192
   3 C :   -0.036011    0.702238
   4 C :   -0.000208   -0.331689
   5 C :   -0.079547    0.714859
   6 C :    0.038502   -0.058547
   7 H :    0.200603    0.000412
   8 H :    0.036901    0.004546
   9 H :    0.040170   -0.033538
  10 H :    0.028302    0.011803
  11 H :    0.023654   -0.034469
  12 H :    0.060088    0.029258
  13 H :    0.057140    0.007450
Sum of atomic charges         :   -0.0000000

LOEWDIN ATOMIC CHARGES AND SPIN POPULATIONS
-------------------------------------------
   0 O :   -0.079061    0.007471
   1 O :   -0.124442    0.028117
   2 C :    0.060122    0.002516
   3 C :   -0.029382    0.549842
   4 C :   -0.036235   -0.180374
   5 C :   -0.000786    0.566097
   6 C :   -0.054794   -0.008347
   7 H :    0.090602    0.000708
   8 H :    0.016839    0.004090
   9 H :    0.027849   -0.001370
  10 H :    0.032686    0.000785
  11 H :    0.018985    0.000540
  12 H :    0.041988    0.023228
  13 H :    0.035630    0.006696

  Mayer bond orders larger than 0.100000
B(  0-O ,  1-O ) :   0.9174 B(  0-O ,  7-H ) :   0.9640 B(  1-O ,  2-C ) :   0.8940
B(  2-C ,  3-C ) :   1.0246 B(  2-C ,  6-C ) :   1.0307 B(  2-C ,  8-H ) :   0.9442
B(  3-C ,  4-C ) :   1.3805 B(  3-C ,  5-C ) :   0.1054 B(  3-C ,  9-H ) :   0.9892
B(  4-C ,  5-C ) :   1.4089 B(  4-C , 10-H ) :   0.9933 B(  5-C ,  6-C ) :   1.0041
B(  5-C , 11-H ) :   0.9905 B(  6-C , 12-H ) :   0.9238 B(  6-C , 13-H ) :   0.9301

Dispersion correction           -0.010041231
FINAL SINGLE POINT ENERGY      -344.389050465115
Dispersion correction            ... done

DIPOLE MOMENT
-------------
                                X             Y             Z
Electronic contribution:     -1.60321       0.40766       2.08991
Nuclear contribution   :      1.83198      -0.62664      -2.05851
                        -----------------------------------------
Total Dipole Moment    :      0.22876      -0.21898       0.03141
                        -----------------------------------------
Magnitude (a.u.)       :      0.31823
Magnitude (Debye)      :      0.80889

Rotational constants in cm-1:     0.184117     0.072612     0.062171
Rotational constants in MHz :  5519.702613  2176.866498  1863.832957

                             ****ORCA TERMINATED NORMALLY****
TOTAL RUN TIME: 0 days 0 hours 1 minutes 0 seconds 543 msec
