                         Program Version 5.0.4 -  RELEASE  -
|  1> ! EnGrad PBE0 RIJCOSX D3BJ def2-SVP def2/J
|  2> %output
|  3> xyzfile=True
|  4> end
|  5> %scf
|  6> maxiter 250
|  7> end
|  8> %output
|  9> Print[P_Hirshfeld] = 1
| 10> end
| 11> % maxcore
| 12> 4000
| 13> *xyz 0 2
| 14> O   -2.28369840  -0.71057841   0.91675777
| 15> O   -1.13668915   0.08751468   1.10932766
| 16> C   -0.65126833   0.54369079  -0.17178063
| 17> C    0.55119628   1.37475402   0.18917255
| 18> C    1.66115363   0.53361464   0.17978864
| 19> C    1.33684182  -0.69907344  -0.37618419
| 20> C   -0.06634020  -0.66034579  -0.91131983
| 21> H   -2.36296954  -1.12740895   1.79373104
| 22> H   -1.47296150   1.07333363  -0.68313778
| 23> H    0.49389958   2.39274506   0.57891691
| 24> H    2.65282247   0.79882973   0.55272456
| 25> H    2.00216961  -1.54553075  -0.46715634
| 26> H   -0.04640740  -0.51073393  -2.00736813
| 27> H   -0.67788283  -1.55108026  -0.70383014
| 28> *
| 29>
| 30>                          ****END OF INPUT****

CARTESIAN COORDINATES (ANGSTROEM)
---------------------------------
  O     -2.283698   -0.710578    0.916758
  O     -1.136689    0.087515    1.109328
  C     -0.651268    0.543691   -0.171781
  C      0.551196    1.374754    0.189173
  C      1.661154    0.533615    0.179789
  C      1.336842   -0.699073   -0.376184
  C     -0.066340   -0.660346   -0.911320
  H     -2.362970   -1.127409    1.793731
  H     -1.472962    1.073334   -0.683138
  H      0.493900    2.392745    0.578917
  H      2.652822    0.798830    0.552725
  H      2.002170   -1.545531   -0.467156
  H     -0.046407   -0.510734   -2.007368
  H     -0.677883   -1.551080   -0.703830

 Total Charge           Charge          ....    0
 Multiplicity           Mult            ....    2
 Number of Electrons    NEL             ....   53
 Basis Dimension        Dim             ....  133

ORBITAL ENERGIES
----------------
                 SPIN UP ORBITALS
  NO   OCC          E(Eh)            E(eV)
   0   1.0000     -19.249594      -523.8081
   1   1.0000     -19.249445      -523.8040
   2   1.0000     -10.285835      -279.8918
   3   1.0000     -10.245422      -278.7921
   4   1.0000     -10.244534      -278.7679
   5   1.0000     -10.238598      -278.6064
   6   1.0000     -10.232778      -278.4480
   7   1.0000      -1.140757       -31.0416
   8   1.0000      -0.929568       -25.2948
   9   1.0000      -0.853512       -23.2253
  10   1.0000      -0.730400       -19.8752
  11   1.0000      -0.707698       -19.2574
  12   1.0000      -0.584141       -15.8953
  13   1.0000      -0.560496       -15.2519
  14   1.0000      -0.541390       -14.7320
  15   1.0000      -0.522777       -14.2255
  16   1.0000      -0.496260       -13.5039
  17   1.0000      -0.450049       -12.2465
  18   1.0000      -0.406219       -11.0538
  19   1.0000      -0.401995       -10.9388
  20   1.0000      -0.388737       -10.5781
  21   1.0000      -0.386678       -10.5220
  22   1.0000      -0.359155        -9.7731
  23   1.0000      -0.338311        -9.2059
  24   1.0000      -0.322698        -8.7811
  25   1.0000      -0.241960        -6.5841
  26   1.0000      -0.203554        -5.5390
  27   0.0000       0.026074         0.7095
  28   0.0000       0.069338         1.8868
  29   0.0000       0.086504         2.3539
  30   0.0000       0.106970         2.9108
  31   0.0000       0.119025         3.2388

                 SPIN DOWN ORBITALS
  NO   OCC          E(Eh)            E(eV)
   0   1.0000     -19.249096      -523.7945
   1   1.0000     -19.248434      -523.7765
   2   1.0000     -10.286350      -279.9058
   3   1.0000     -10.242820      -278.7213
   4   1.0000     -10.235170      -278.5131
   5   1.0000     -10.234425      -278.4929
   6   1.0000     -10.233370      -278.4641
   7   1.0000      -1.138931       -30.9919
   8   1.0000      -0.925281       -25.1782
   9   1.0000      -0.845018       -22.9941
  10   1.0000      -0.724565       -19.7164
  11   1.0000      -0.692966       -18.8566
  12   1.0000      -0.575963       -15.6727
  13   1.0000      -0.557381       -15.1671
  14   1.0000      -0.532326       -14.4853
  15   1.0000      -0.520560       -14.1652
  16   1.0000      -0.492778       -13.4092
  17   1.0000      -0.445889       -12.1333
  18   1.0000      -0.400735       -10.9046
  19   1.0000      -0.395807       -10.7705
  20   1.0000      -0.384734       -10.4692
  21   1.0000      -0.382270       -10.4021
  22   1.0000      -0.357056        -9.7160
  23   1.0000      -0.335707        -9.1350
  24   1.0000      -0.296850        -8.0777
  25   1.0000      -0.240662        -6.5487
  26   0.0000      -0.065470        -1.7815
  27   0.0000       0.043362         1.1800
  28   0.0000       0.073307         1.9948
  29   0.0000       0.090571         2.4646
  30   0.0000       0.113904         3.0995

MULLIKEN ATOMIC CHARGES AND SPIN POPULATIONS
--------------------------------------------
   0 O :   -0.163878    0.011354
   1 O :   -0.287137    0.018545
   2 C :    0.086254   -0.042316
   3 C :   -0.039515    0.707445
   4 C :    0.001072   -0.329119
   5 C :   -0.086142    0.706795
   6 C :    0.040956   -0.058228
   7 H :    0.194701    0.000175
   8 H :    0.037355    0.004607
   9 H :    0.041069   -0.033896
  10 H :    0.028661    0.011759
  11 H :    0.029275   -0.034648
  12 H :    0.060127    0.029948
  13 H :    0.057203    0.007579
Sum of atomic charges         :   -0.0000000

LOEWDIN ATOMIC CHARGES AND SPIN POPULATIONS
-------------------------------------------
   0 O :   -0.074657    0.009582
   1 O :   -0.116204    0.026134
   2 C :    0.055785    0.002760
   3 C :   -0.029199    0.554155
   4 C :   -0.037526   -0.178208
   5 C :   -0.003809    0.559546
   6 C :   -0.055669   -0.008001
   7 H :    0.082303    0.000618
   8 H :    0.016954    0.004173
   9 H :    0.028002   -0.001492
  10 H :    0.033335    0.000839
  11 H :    0.022191   -0.000645
  12 H :    0.042415    0.023732
  13 H :    0.036078    0.006808

  Mayer bond orders larger than 0.100000
B(  0-O ,  1-O ) :   0.9207 B(  0-O ,  7-H ) :   0.9690 B(  1-O ,  2-C ) :   0.9020
B(  2-C ,  3-C ) :   1.0221 B(  2-C ,  6-C ) :   1.0292 B(  2-C ,  8-H ) :   0.9436
B(  3-C ,  4-C ) :   1.3739 B(  3-C ,  5-C ) :   0.1058 B(  3-C ,  9-H ) :   0.9886
B(  4-C ,  5-C ) :   1.4164 B(  4-C , 10-H ) :   0.9936 B(  5-C ,  6-C ) :   1.0053
B(  5-C , 11-H ) :   0.9871 B(  6-C , 12-H ) :   0.9232 B(  6-C , 13-H ) :   0.9299

Dispersion correction           -0.010038685
FINAL SINGLE POINT ENERGY      -344.391497564445
Dispersion correction            ... done

DIPOLE MOMENT
-------------
                                X             Y             Z
Electronic contribution:     -1.60492       0.41604       2.10000
Nuclear contribution   :      1.84085      -0.62851      -2.07140
                        -----------------------------------------
Total Dipole Moment    :      0.23593      -0.21247       0.02860
                        -----------------------------------------
Magnitude (a.u.)       :      0.31879
Magnitude (Debye)      :      0.81029

Rotational constants in cm-1:     0.184317     0.072553     0.062085
Rotational constants in MHz :  5525.673569  2175.073996  1861.267971

                             ****ORCA TERMINATED NORMALLY****
TOTAL RUN TIME: 0 days 0 hours 1 minutes 2 seconds 750 msec
