                         Program Version 5.0.4 -  RELEASE  -
|  1> ! EnGrad PBE0 RIJCOSX D3BJ def2-SVP def2/J
|  2> %output
|  3> xyzfile=True
|  4> end
|  5> %scf
|  6> maxiter 250
|  7> end
|  8> %output
|  9> Print[P_Hirshfeld] = 1
| 10> end
| 11> % maxcore
| 12> 4000
| 13> *xyz 0 2
| 14> O   -2.47696000   0.65823000   1.81502000
| 15> O   -0.43752000  -0.39225000   0.81465000
| 16> C   -0.72361000   0.14623000  -0.44384000
| 17> C    0.15512000   0.86583000   0.51111000
| 18> C    1.54332000   0.46201000   0.22990000
| 19> C    1.38881000  -0.61276000  -0.54729000
| 20> C    0.12890000  -0.67263000  -1.35286000
| 21> H   -2.29696000  -0.13980000   2.34140000
| 22> H   -1.75992000   0.43561000  -0.63852000
| 23> H   -0.18350000   1.71800000   1.10346000
| 24> H    2.43402000   0.76766000   0.77647000
| 25> H    2.21849000  -1.28773000  -0.78670000
| 26> H    0.29057000  -0.25867000  -2.36250000
| 27> H   -0.28077000  -1.68962000  -1.46031000
| 28> *
| 29>
| 30>                          ****END OF INPUT****

CARTESIAN COORDINATES (ANGSTROEM)
---------------------------------
  O     -2.476960    0.658230    1.815020
  O     -0.437520   -0.392250    0.814650
  C     -0.723610    0.146230   -0.443840
  C      0.155120    0.865830    0.511110
  C      1.543320    0.462010    0.229900
  C      1.388810   -0.612760   -0.547290
  C      0.128900   -0.672630   -1.352860
  H     -2.296960   -0.139800    2.341400
  H     -1.759920    0.435610   -0.638520
  H     -0.183500    1.718000    1.103460
  H      2.434020    0.767660    0.776470
  H      2.218490   -1.287730   -0.786700
  H      0.290570   -0.258670   -2.362500
  H     -0.280770   -1.689620   -1.460310

 Total Charge           Charge          ....    0
 Multiplicity           Mult            ....    2
 Number of Electrons    NEL             ....   53
 Basis Dimension        Dim             ....  133

ORBITAL ENERGIES
----------------
                 SPIN UP ORBITALS
  NO   OCC          E(Eh)            E(eV)
   0   1.0000     -19.237664      -523.4835
   1   1.0000     -19.224608      -523.1282
   2   1.0000     -10.287248      -279.9302
   3   1.0000     -10.286527      -279.9106
   4   1.0000     -10.242917      -278.7239
   5   1.0000     -10.239438      -278.6293
   6   1.0000     -10.231613      -278.4163
   7   1.0000      -1.129259       -30.7287
   8   1.0000      -0.988887       -26.9090
   9   1.0000      -0.839600       -22.8467
  10   1.0000      -0.751675       -20.4541
  11   1.0000      -0.676029       -18.3957
  12   1.0000      -0.596740       -16.2381
  13   1.0000      -0.565096       -15.3771
  14   1.0000      -0.561163       -15.2700
  15   1.0000      -0.470351       -12.7989
  16   1.0000      -0.468535       -12.7495
  17   1.0000      -0.453793       -12.3483
  18   1.0000      -0.434453       -11.8221
  19   1.0000      -0.411191       -11.1891
  20   1.0000      -0.397915       -10.8278
  21   1.0000      -0.391807       -10.6616
  22   1.0000      -0.368503       -10.0275
  23   1.0000      -0.327845        -8.9211
  24   1.0000      -0.317696        -8.6449
  25   1.0000      -0.300805        -8.1853
  26   1.0000      -0.242877        -6.6090
  27   0.0000      -0.004266        -0.1161
  28   0.0000       0.078016         2.1229
  29   0.0000       0.098149         2.6708
  30   0.0000       0.110012         2.9936
  31   0.0000       0.118627         3.2280

                 SPIN DOWN ORBITALS
  NO   OCC          E(Eh)            E(eV)
   0   1.0000     -19.222153      -523.0614
   1   1.0000     -19.211731      -522.7778
   2   1.0000     -10.287296      -279.9316
   3   1.0000     -10.286547      -279.9112
   4   1.0000     -10.242915      -278.7239
   5   1.0000     -10.239383      -278.6278
   6   1.0000     -10.231472      -278.4125
   7   1.0000      -1.126029       -30.6408
   8   1.0000      -0.916648       -24.9432
   9   1.0000      -0.838499       -22.8167
  10   1.0000      -0.751494       -20.4492
  11   1.0000      -0.674860       -18.3639
  12   1.0000      -0.596439       -16.2299
  13   1.0000      -0.563824       -15.3424
  14   1.0000      -0.559401       -15.2221
  15   1.0000      -0.468607       -12.7514
  16   1.0000      -0.467685       -12.7264
  17   1.0000      -0.433713       -11.8019
  18   1.0000      -0.426770       -11.6130
  19   1.0000      -0.406143       -11.0517
  20   1.0000      -0.397573       -10.8185
  21   1.0000      -0.373061       -10.1515
  22   1.0000      -0.326848        -8.8940
  23   1.0000      -0.298591        -8.1251
  24   1.0000      -0.291479        -7.9316
  25   1.0000      -0.242088        -6.5875
  26   0.0000      -0.107304        -2.9199
  27   0.0000      -0.003640        -0.0991
  28   0.0000       0.080262         2.1840
  29   0.0000       0.102665         2.7937
  30   0.0000       0.111007         3.0206

MULLIKEN ATOMIC CHARGES AND SPIN POPULATIONS
--------------------------------------------
   0 O :   -0.219950    0.964838
   1 O :   -0.327083    0.058701
   2 C :   -0.009576   -0.003557
   3 C :    0.078816   -0.004091
   4 C :    0.020674    0.009773
   5 C :   -0.137889   -0.000074
   6 C :    0.113010   -0.000043
   7 H :    0.185354   -0.026523
   8 H :    0.058563    0.001187
   9 H :    0.052035    0.000252
  10 H :    0.036030   -0.000496
  11 H :    0.028939    0.000340
  12 H :    0.062680   -0.000204
  13 H :    0.058397   -0.000103
Sum of atomic charges         :    0.0000000

LOEWDIN ATOMIC CHARGES AND SPIN POPULATIONS
-------------------------------------------
   0 O :   -0.104330    0.930537
   1 O :   -0.142446    0.061818
   2 C :    0.048687   -0.000652
   3 C :    0.050517   -0.002119
   4 C :   -0.058720    0.007617
   5 C :   -0.003869    0.000689
   6 C :   -0.048066   -0.000200
   7 H :    0.060182    0.001479
   8 H :    0.024819    0.000705
   9 H :    0.027113    0.000236
  10 H :    0.033841    0.000022
  11 H :    0.023903    0.000166
  12 H :    0.043647   -0.000196
  13 H :    0.044721   -0.000102

  Mayer bond orders larger than 0.100000
B(  0-O ,  7-H ) :   0.9801 B(  1-O ,  2-C ) :   0.9391 B(  1-O ,  3-C ) :   0.9066
B(  2-C ,  3-C ) :   1.0145 B(  2-C ,  6-C ) :   0.9957 B(  2-C ,  8-H ) :   0.9702
B(  3-C ,  4-C ) :   0.9697 B(  3-C ,  9-H ) :   0.9807 B(  4-C ,  5-C ) :   1.8340
B(  4-C , 10-H ) :   0.9949 B(  5-C ,  6-C ) :   1.0201 B(  5-C , 11-H ) :   0.9660
B(  6-C , 12-H ) :   0.9239 B(  6-C , 13-H ) :   0.9240

Dispersion correction           -0.009670108
FINAL SINGLE POINT ENERGY      -344.365571891032
Dispersion correction            ... done

DIPOLE MOMENT
-------------
                                X             Y             Z
Electronic contribution:     -1.11235       0.63610       2.09547
Nuclear contribution   :      1.43540      -0.82611      -2.37429
                        -----------------------------------------
Total Dipole Moment    :      0.32305      -0.19000      -0.27882
                        -----------------------------------------
Magnitude (a.u.)       :      0.46712
Magnitude (Debye)      :      1.18732

Rotational constants in cm-1:     0.202900     0.065088     0.055728
Rotational constants in MHz :  6082.791707  1951.288379  1670.676332

                             ****ORCA TERMINATED NORMALLY****
TOTAL RUN TIME: 0 days 0 hours 1 minutes 33 seconds 249 msec
