                         Program Version 5.0.4 -  RELEASE  -
|  1> ! EnGrad PBE0 RIJCOSX D3BJ def2-SVP def2/J
|  2> %output
|  3> xyzfile=True
|  4> end
|  5> %scf
|  6> maxiter 250
|  7> end
|  8> %output
|  9> Print[P_Hirshfeld] = 1
| 10> end
| 11> % maxcore
| 12> 4000
| 13> *xyz 0 2
| 14> O   -2.48032075   0.65992996   1.81717283
| 15> O   -0.58708859  -0.37456697   0.92725715
| 16> C   -0.72721697   0.14530911  -0.44519446
| 17> C    0.15598360   0.86777349   0.51428272
| 18> C    1.54208911   0.45973360   0.22822719
| 19> C    1.53569788  -0.62947382  -0.65595272
| 20> C    0.13039076  -0.67329954  -1.35145569
| 21> H   -2.28680694  -0.14125734   2.33245571
| 22> H   -1.75980463   0.43605834  -0.63836237
| 23> H   -0.18376987   1.71812591   1.10324043
| 24> H    2.43401069   0.76793639   0.77660022
| 25> H    2.21787184  -1.28797668  -0.78601233
| 26> H    0.29052783  -0.25832170  -2.36204579
| 27> H   -0.28127426  -1.68960450  -1.46002187
| 28> *
| 29>
| 30>                          ****END OF INPUT****

CARTESIAN COORDINATES (ANGSTROEM)
---------------------------------
  O     -2.480321    0.659930    1.817173
  O     -0.587089   -0.374567    0.927257
  C     -0.727217    0.145309   -0.445194
  C      0.155984    0.867773    0.514283
  C      1.542089    0.459734    0.228227
  C      1.535698   -0.629474   -0.655953
  C      0.130391   -0.673300   -1.351456
  H     -2.286807   -0.141257    2.332456
  H     -1.759805    0.436058   -0.638362
  H     -0.183770    1.718126    1.103240
  H      2.434011    0.767936    0.776600
  H      2.217872   -1.287977   -0.786012
  H      0.290528   -0.258322   -2.362046
  H     -0.281274   -1.689604   -1.460022

 Total Charge           Charge          ....    0
 Multiplicity           Mult            ....    2
 Number of Electrons    NEL             ....   53
 Basis Dimension        Dim             ....  133

ORBITAL ENERGIES
----------------
                 SPIN UP ORBITALS
  NO   OCC          E(Eh)            E(eV)
   0   1.0000     -19.229575      -523.2633
   1   1.0000     -19.221657      -523.0479
   2   1.0000     -10.295917      -280.1661
   3   1.0000     -10.294280      -280.1216
   4   1.0000     -10.253352      -279.0079
   5   1.0000     -10.251122      -278.9472
   6   1.0000     -10.250188      -278.9218
   7   1.0000      -1.079982       -29.3878
   8   1.0000      -0.973340       -26.4859
   9   1.0000      -0.836532       -22.7632
  10   1.0000      -0.743165       -20.2225
  11   1.0000      -0.691611       -18.8197
  12   1.0000      -0.597476       -16.2581
  13   1.0000      -0.582360       -15.8468
  14   1.0000      -0.553288       -15.0557
  15   1.0000      -0.475447       -12.9376
  16   1.0000      -0.458296       -12.4709
  17   1.0000      -0.440935       -11.9984
  18   1.0000      -0.427775       -11.6403
  19   1.0000      -0.412421       -11.2225
  20   1.0000      -0.410517       -11.1707
  21   1.0000      -0.379510       -10.3270
  22   1.0000      -0.367435        -9.9984
  23   1.0000      -0.334575        -9.1043
  24   1.0000      -0.303892        -8.2693
  25   1.0000      -0.289612        -7.8807
  26   1.0000      -0.255593        -6.9550
  27   0.0000      -0.026261        -0.7146
  28   0.0000       0.079858         2.1730
  29   0.0000       0.092573         2.5190
  30   0.0000       0.107493         2.9250
  31   0.0000       0.112148         3.0517

                 SPIN DOWN ORBITALS
  NO   OCC          E(Eh)            E(eV)
   0   1.0000     -19.225880      -523.1628
   1   1.0000     -19.196080      -522.3519
   2   1.0000     -10.296013      -280.1687
   3   1.0000     -10.294368      -280.1240
   4   1.0000     -10.253352      -279.0079
   5   1.0000     -10.251096      -278.9465
   6   1.0000     -10.250094      -278.9192
   7   1.0000      -1.074789       -29.2465
   8   1.0000      -0.903658       -24.5898
   9   1.0000      -0.834902       -22.7188
  10   1.0000      -0.743129       -20.2216
  11   1.0000      -0.689977       -18.7752
  12   1.0000      -0.596985       -16.2448
  13   1.0000      -0.581833       -15.8325
  14   1.0000      -0.551319       -15.0022
  15   1.0000      -0.471914       -12.8414
  16   1.0000      -0.456500       -12.4220
  17   1.0000      -0.428025       -11.6471
  18   1.0000      -0.414538       -11.2802
  19   1.0000      -0.411212       -11.1896
  20   1.0000      -0.408222       -11.1083
  21   1.0000      -0.367513       -10.0005
  22   1.0000      -0.335258        -9.1228
  23   1.0000      -0.290571        -7.9068
  24   1.0000      -0.278143        -7.5687
  25   1.0000      -0.256617        -6.9829
  26   0.0000      -0.089636        -2.4391
  27   0.0000      -0.025500        -0.6939
  28   0.0000       0.082143         2.2352
  29   0.0000       0.093971         2.5571
  30   0.0000       0.109539         2.9807

MULLIKEN ATOMIC CHARGES AND SPIN POPULATIONS
--------------------------------------------
   0 O :   -0.241260    0.939833
   1 O :   -0.367122    0.088914
   2 C :    0.013891   -0.005814
   3 C :    0.079060   -0.005729
   4 C :    0.027310    0.000691
   5 C :   -0.048794    0.004873
   6 C :    0.069142   -0.000230
   7 H :    0.183188   -0.025188
   8 H :    0.071750    0.001991
   9 H :    0.064687    0.000908
  10 H :    0.041140   -0.000011
  11 H :   -0.033512   -0.000250
  12 H :    0.073747    0.000094
  13 H :    0.066774   -0.000082
Sum of atomic charges         :   -0.0000000

LOEWDIN ATOMIC CHARGES AND SPIN POPULATIONS
-------------------------------------------
   0 O :   -0.129763    0.905095
   1 O :   -0.193170    0.094528
   2 C :    0.075133   -0.002908
   3 C :    0.072947   -0.003910
   4 C :   -0.047439    0.000648
   5 C :    0.035120    0.003993
   6 C :   -0.046449   -0.000176
   7 H :    0.054593    0.001225
   8 H :    0.031631    0.001013
   9 H :    0.032542    0.000446
  10 H :    0.032175    0.000071
  11 H :   -0.009562    0.000033
  12 H :    0.047372    0.000024
  13 H :    0.044870   -0.000081

  Mayer bond orders larger than 0.100000
B(  0-O ,  1-O ) :   0.1330 B(  0-O ,  7-H ) :   0.9790 B(  1-O ,  2-C ) :   0.9177
B(  1-O ,  3-C ) :   0.8777 B(  2-C ,  3-C ) :   1.0168 B(  2-C ,  6-C ) :   1.0047
B(  2-C ,  8-H ) :   0.9617 B(  3-C ,  4-C ) :   0.9929 B(  3-C ,  9-H ) :   0.9725
B(  4-C ,  5-C ) :   1.8015 B(  4-C , 10-H ) :   0.9928 B(  5-C ,  6-C ) :   1.0021
B(  5-C , 11-H ) :   1.0030 B(  6-C , 12-H ) :   0.9283 B(  6-C , 13-H ) :   0.9314

Dispersion correction           -0.009681024
FINAL SINGLE POINT ENERGY      -344.363421548547
Dispersion correction            ... done

DIPOLE MOMENT
-------------
                                X             Y             Z
Electronic contribution:     -0.90600       0.59466       1.92781
Nuclear contribution   :      1.48823      -0.83199      -2.41565
                        -----------------------------------------
Total Dipole Moment    :      0.58223      -0.23733      -0.48785
                        -----------------------------------------
Magnitude (a.u.)       :      0.79581
Magnitude (Debye)      :      2.02279

Rotational constants in cm-1:     0.202193     0.062150     0.053609
Rotational constants in MHz :  6061.602943  1863.224143  1607.147653

                             ****ORCA TERMINATED NORMALLY****
TOTAL RUN TIME: 0 days 0 hours 1 minutes 18 seconds 738 msec
