                         Program Version 5.0.4 -  RELEASE  -
|  1> ! EnGrad PBE0 RIJCOSX D3BJ def2-SVP def2/J
|  2> %output
|  3> xyzfile=True
|  4> end
|  5> %scf
|  6> maxiter 250
|  7> end
|  8> %output
|  9> Print[P_Hirshfeld] = 1
| 10> end
| 11> % maxcore
| 12> 4000
| 13> *xyz 0 2
| 14> O   -2.48104876   0.66042998   1.81751962
| 15> O   -0.58343684  -0.36537017   0.91708656
| 16> C   -0.72444828   0.14291352  -0.43316572
| 17> C    0.14991981   0.85890157   0.51464938
| 18> C    1.54591650   0.44306608   0.21860646
| 19> C    1.49141265  -0.58310407  -0.64053960
| 20> C    0.13979434  -0.67715326  -1.34954330
| 21> H   -2.28635453  -0.14110631   2.33183741
| 22> H   -1.75958339   0.43726508  -0.64017930
| 23> H   -0.18283408   1.71955138   1.10247746
| 24> H    2.43323821   0.76858171   0.77758133
| 25> H    2.25034420  -1.31600437  -0.79374337
| 26> H    0.28815553  -0.25785582  -2.36214456
| 27> H   -0.28075412  -1.68976192  -1.46027757
| 28> *
| 29>
| 30>                          ****END OF INPUT****

CARTESIAN COORDINATES (ANGSTROEM)
---------------------------------
  O     -2.481049    0.660430    1.817520
  O     -0.583437   -0.365370    0.917087
  C     -0.724448    0.142914   -0.433166
  C      0.149920    0.858902    0.514649
  C      1.545916    0.443066    0.218606
  C      1.491413   -0.583104   -0.640540
  C      0.139794   -0.677153   -1.349543
  H     -2.286355   -0.141106    2.331837
  H     -1.759583    0.437265   -0.640179
  H     -0.182834    1.719551    1.102477
  H      2.433238    0.768582    0.777581
  H      2.250344   -1.316004   -0.793743
  H      0.288156   -0.257856   -2.362145
  H     -0.280754   -1.689762   -1.460278

 Total Charge           Charge          ....    0
 Multiplicity           Mult            ....    2
 Number of Electrons    NEL             ....   53
 Basis Dimension        Dim             ....  133

ORBITAL ENERGIES
----------------
                 SPIN UP ORBITALS
  NO   OCC          E(Eh)            E(eV)
   0   1.0000     -19.229487      -523.2609
   1   1.0000     -19.223464      -523.0971
   2   1.0000     -10.293186      -280.0918
   3   1.0000     -10.291578      -280.0481
   4   1.0000     -10.250596      -278.9329
   5   1.0000     -10.248037      -278.8633
   6   1.0000     -10.243089      -278.7286
   7   1.0000      -1.093914       -29.7669
   8   1.0000      -0.975347       -26.5405
   9   1.0000      -0.845447       -23.0058
  10   1.0000      -0.744110       -20.2483
  11   1.0000      -0.684421       -18.6241
  12   1.0000      -0.596651       -16.2357
  13   1.0000      -0.569693       -15.5021
  14   1.0000      -0.555700       -15.1214
  15   1.0000      -0.475835       -12.9481
  16   1.0000      -0.459741       -12.5102
  17   1.0000      -0.441948       -12.0260
  18   1.0000      -0.420150       -11.4329
  19   1.0000      -0.419256       -11.4085
  20   1.0000      -0.405866       -11.0442
  21   1.0000      -0.382919       -10.4198
  22   1.0000      -0.368759       -10.0344
  23   1.0000      -0.335086        -9.1182
  24   1.0000      -0.305429        -8.3111
  25   1.0000      -0.289314        -7.8726
  26   1.0000      -0.261630        -7.1193
  27   0.0000      -0.012443        -0.3386
  28   0.0000       0.077384         2.1057
  29   0.0000       0.097279         2.6471
  30   0.0000       0.109084         2.9683
  31   0.0000       0.111615         3.0372

                 SPIN DOWN ORBITALS
  NO   OCC          E(Eh)            E(eV)
   0   1.0000     -19.225965      -523.1651
   1   1.0000     -19.197793      -522.3985
   2   1.0000     -10.293274      -280.0942
   3   1.0000     -10.291658      -280.0502
   4   1.0000     -10.250593      -278.9328
   5   1.0000     -10.247952      -278.8610
   6   1.0000     -10.243056      -278.7277
   7   1.0000      -1.089068       -29.6350
   8   1.0000      -0.905271       -24.6337
   9   1.0000      -0.843895       -22.9636
  10   1.0000      -0.744047       -20.2465
  11   1.0000      -0.682722       -18.5778
  12   1.0000      -0.596321       -16.2267
  13   1.0000      -0.568982       -15.4828
  14   1.0000      -0.553475       -15.0608
  15   1.0000      -0.471994       -12.8436
  16   1.0000      -0.458739       -12.4829
  17   1.0000      -0.421627       -11.4731
  18   1.0000      -0.417156       -11.3514
  19   1.0000      -0.412285       -11.2189
  20   1.0000      -0.405496       -11.0341
  21   1.0000      -0.372213       -10.1284
  22   1.0000      -0.335760        -9.1365
  23   1.0000      -0.289510        -7.8780
  24   1.0000      -0.279581        -7.6078
  25   1.0000      -0.262959        -7.1555
  26   0.0000      -0.091106        -2.4791
  27   0.0000      -0.011812        -0.3214
  28   0.0000       0.079098         2.1524
  29   0.0000       0.100244         2.7278
  30   0.0000       0.109260         2.9731

MULLIKEN ATOMIC CHARGES AND SPIN POPULATIONS
--------------------------------------------
   0 O :   -0.237314    0.944233
   1 O :   -0.357720    0.083541
   2 C :    0.004819   -0.005140
   3 C :    0.070332   -0.005212
   4 C :    0.034601    0.001317
   5 C :   -0.122631    0.003984
   6 C :    0.082980   -0.000159
   7 H :    0.183461   -0.025355
   8 H :    0.069539    0.002122
   9 H :    0.063154    0.001013
  10 H :    0.039998   -0.000045
  11 H :    0.031394   -0.000307
  12 H :    0.072161    0.000091
  13 H :    0.065227   -0.000082
Sum of atomic charges         :    0.0000000

LOEWDIN ATOMIC CHARGES AND SPIN POPULATIONS
-------------------------------------------
   0 O :   -0.125709    0.909266
   1 O :   -0.178488    0.089276
   2 C :    0.066372   -0.002318
   3 C :    0.068777   -0.003389
   4 C :   -0.055428    0.001216
   5 C :    0.002853    0.003230
   6 C :   -0.048845   -0.000090
   7 H :    0.055153    0.001265
   8 H :    0.030174    0.001116
   9 H :    0.031501    0.000524
  10 H :    0.035515    0.000063
  11 H :    0.024589   -0.000110
  12 H :    0.048316    0.000033
  13 H :    0.045219   -0.000080

  Mayer bond orders larger than 0.100000
B(  0-O ,  1-O ) :   0.1261 B(  0-O ,  7-H ) :   0.9792 B(  1-O ,  2-C ) :   0.9254
B(  1-O ,  3-C ) :   0.8856 B(  2-C ,  3-C ) :   1.0234 B(  2-C ,  6-C ) :   1.0013
B(  2-C ,  8-H ) :   0.9594 B(  3-C ,  4-C ) :   0.9806 B(  3-C ,  9-H ) :   0.9706
B(  4-C ,  5-C ) :   1.8210 B(  4-C , 10-H ) :   0.9938 B(  5-C ,  6-C ) :   1.0114
B(  5-C , 11-H ) :   0.9766 B(  6-C , 12-H ) :   0.9269 B(  6-C , 13-H ) :   0.9296

Dispersion correction           -0.009678524
FINAL SINGLE POINT ENERGY      -344.386299743888
Dispersion correction            ... done

DIPOLE MOMENT
-------------
                                X             Y             Z
Electronic contribution:     -0.98087       0.63378       1.97543
Nuclear contribution   :      1.54002      -0.87499      -2.43038
                        -----------------------------------------
Total Dipole Moment    :      0.55916      -0.24121      -0.45495
                        -----------------------------------------
Magnitude (a.u.)       :      0.76014
Magnitude (Debye)      :      1.93213

Rotational constants in cm-1:     0.205891     0.062745     0.054049
Rotational constants in MHz :  6172.442474  1881.057381  1620.351765

                             ****ORCA TERMINATED NORMALLY****
TOTAL RUN TIME: 0 days 0 hours 1 minutes 11 seconds 723 msec
