                         Program Version 5.0.4 -  RELEASE  -
|  1> ! EnGrad PBE0 RIJCOSX D3BJ def2-SVP def2/J
|  2> %output
|  3> xyzfile=True
|  4> end
|  5> %scf
|  6> maxiter 250
|  7> end
|  8> %output
|  9> Print[P_Hirshfeld] = 1
| 10> end
| 11> % maxcore
| 12> 4000
| 13> *xyz 0 2
| 14> O   -2.35501066  -0.29712770   1.63947248
| 15> O   -0.54828580  -0.28722299   0.85845857
| 16> C   -0.73683980   0.22124082  -0.42746072
| 17> C    0.15962902   0.90865892   0.53332098
| 18> C    1.52634470   0.42809551   0.27534490
| 19> C    1.36648180  -0.61913532  -0.53590618
| 20> C    0.09042730  -0.65049999  -1.31426617
| 21> H   -2.13156651   0.44386056   2.22075275
| 22> H   -1.74292919   0.57948416  -0.66258909
| 23> H   -0.12098230   1.80746480   1.08818030
| 24> H    2.42237454   0.70091945   0.83112642
| 25> H    2.17836076  -1.31262206  -0.77857212
| 26> H    0.24643514  -0.26773538  -2.33729717
| 27> H   -0.35443901  -1.65528645  -1.39057062
| 28> *
| 29>
| 30>                          ****END OF INPUT****

CARTESIAN COORDINATES (ANGSTROEM)
---------------------------------
  O     -2.355011   -0.297128    1.639472
  O     -0.548286   -0.287223    0.858459
  C     -0.736840    0.221241   -0.427461
  C      0.159629    0.908659    0.533321
  C      1.526345    0.428096    0.275345
  C      1.366482   -0.619135   -0.535906
  C      0.090427   -0.650500   -1.314266
  H     -2.131567    0.443861    2.220753
  H     -1.742929    0.579484   -0.662589
  H     -0.120982    1.807465    1.088180
  H      2.422375    0.700919    0.831126
  H      2.178361   -1.312622   -0.778572
  H      0.246435   -0.267735   -2.337297
  H     -0.354439   -1.655286   -1.390571

 Total Charge           Charge          ....    0
 Multiplicity           Mult            ....    2
 Number of Electrons    NEL             ....   53
 Basis Dimension        Dim             ....  133

ORBITAL ENERGIES
----------------
                 SPIN UP ORBITALS
  NO   OCC          E(Eh)            E(eV)
   0   1.0000     -19.243673      -523.6470
   1   1.0000     -19.189617      -522.1760
   2   1.0000     -10.299064      -280.2518
   3   1.0000     -10.294024      -280.1146
   4   1.0000     -10.248496      -278.8757
   5   1.0000     -10.246657      -278.8257
   6   1.0000     -10.240807      -278.6665
   7   1.0000      -1.143705       -31.1218
   8   1.0000      -0.952969       -25.9316
   9   1.0000      -0.850009       -23.1299
  10   1.0000      -0.757400       -20.6099
  11   1.0000      -0.687133       -18.6979
  12   1.0000      -0.607781       -16.5386
  13   1.0000      -0.575523       -15.6608
  14   1.0000      -0.571330       -15.5467
  15   1.0000      -0.485772       -13.2185
  16   1.0000      -0.476068       -12.9545
  17   1.0000      -0.448217       -12.1966
  18   1.0000      -0.421625       -11.4730
  19   1.0000      -0.415607       -11.3093
  20   1.0000      -0.403220       -10.9722
  21   1.0000      -0.385734       -10.4964
  22   1.0000      -0.364059        -9.9066
  23   1.0000      -0.329348        -8.9620
  24   1.0000      -0.290588        -7.9073
  25   1.0000      -0.275686        -7.5018
  26   1.0000      -0.238321        -6.4850
  27   0.0000      -0.010857        -0.2954
  28   0.0000       0.066986         1.8228
  29   0.0000       0.094345         2.5673
  30   0.0000       0.105150         2.8613
  31   0.0000       0.114176         3.1069

                 SPIN DOWN ORBITALS
  NO   OCC          E(Eh)            E(eV)
   0   1.0000     -19.236779      -523.4594
   1   1.0000     -19.165139      -521.5099
   2   1.0000     -10.298982      -280.2495
   3   1.0000     -10.294256      -280.1210
   4   1.0000     -10.248461      -278.8748
   5   1.0000     -10.246185      -278.8129
   6   1.0000     -10.240874      -278.6683
   7   1.0000      -1.134991       -30.8847
   8   1.0000      -0.892341       -24.2818
   9   1.0000      -0.845232       -22.9999
  10   1.0000      -0.757076       -20.6011
  11   1.0000      -0.683030       -18.5862
  12   1.0000      -0.606725       -16.5098
  13   1.0000      -0.573537       -15.6067
  14   1.0000      -0.565777       -15.3956
  15   1.0000      -0.477009       -12.9801
  16   1.0000      -0.474354       -12.9078
  17   1.0000      -0.440881       -11.9970
  18   1.0000      -0.416991       -11.3469
  19   1.0000      -0.411317       -11.1925
  20   1.0000      -0.388353       -10.5676
  21   1.0000      -0.379714       -10.3326
  22   1.0000      -0.338829        -9.2200
  23   1.0000      -0.306671        -8.3449
  24   1.0000      -0.260877        -7.0988
  25   1.0000      -0.252275        -6.8648
  26   0.0000      -0.044999        -1.2245
  27   0.0000      -0.007702        -0.2096
  28   0.0000       0.069409         1.8887
  29   0.0000       0.095875         2.6089
  30   0.0000       0.105825         2.8796

MULLIKEN ATOMIC CHARGES AND SPIN POPULATIONS
--------------------------------------------
   0 O :   -0.273100    0.856417
   1 O :   -0.271598    0.146281
   2 C :    0.029717   -0.010663
   3 C :    0.064723    0.001989
   4 C :    0.020795   -0.010329
   5 C :   -0.131987    0.029626
   6 C :    0.102319    0.000397
   7 H :    0.152033   -0.020603
   8 H :    0.054841    0.003629
   9 H :    0.040762    0.004242
  10 H :    0.037326    0.000683
  11 H :    0.035400   -0.001737
  12 H :    0.067281   -0.000042
  13 H :    0.071487    0.000109
Sum of atomic charges         :    0.0000000

LOEWDIN ATOMIC CHARGES AND SPIN POPULATIONS
-------------------------------------------
   0 O :   -0.181557    0.810489
   1 O :   -0.068796    0.163190
   2 C :    0.057921   -0.004827
   3 C :    0.047611    0.004157
   4 C :   -0.056427   -0.006382
   5 C :   -0.000692    0.022607
   6 C :   -0.046447    0.001171
   7 H :    0.037149    0.004900
   8 H :    0.025720    0.002026
   9 H :    0.024405    0.002381
  10 H :    0.035140    0.000347
  11 H :    0.027932   -0.000142
  12 H :    0.046419    0.000051
  13 H :    0.051621    0.000032

  Mayer bond orders larger than 0.100000
B(  0-O ,  1-O ) :   0.2075 B(  0-O ,  7-H ) :   1.0001 B(  1-O ,  2-C ) :   0.9039
B(  1-O ,  3-C ) :   0.9018 B(  2-C ,  3-C ) :   1.0141 B(  2-C ,  6-C ) :   1.0022
B(  2-C ,  8-H ) :   0.9608 B(  3-C ,  4-C ) :   0.9786 B(  3-C ,  9-H ) :   0.9773
B(  4-C ,  5-C ) :   1.8299 B(  4-C , 10-H ) :   0.9954 B(  5-C ,  6-C ) :   1.0233
B(  5-C , 11-H ) :   0.9668 B(  6-C , 12-H ) :   0.9259 B(  6-C , 13-H ) :   0.9204

Dispersion correction           -0.009856241
FINAL SINGLE POINT ENERGY      -344.363287060589
Dispersion correction            ... done

DIPOLE MOMENT
-------------
                                X             Y             Z
Electronic contribution:     -0.80110       0.16914       1.81841
Nuclear contribution   :      1.55842       0.64102      -2.34506
                        -----------------------------------------
Total Dipole Moment    :      0.75732       0.81016      -0.52665
                        -----------------------------------------
Magnitude (a.u.)       :      1.22770
Magnitude (Debye)      :      3.12056

Rotational constants in cm-1:     0.193370     0.072539     0.061651
Rotational constants in MHz :  5797.094718  2174.670706  1848.250209

                             ****ORCA TERMINATED NORMALLY****
TOTAL RUN TIME: 0 days 0 hours 1 minutes 4 seconds 594 msec
