                         Program Version 5.0.4 -  RELEASE  -
|  1> ! EnGrad PBE0 RIJCOSX D3BJ def2-SVP def2/J
|  2> %output
|  3> xyzfile=True
|  4> end
|  5> %scf
|  6> maxiter 250
|  7> end
|  8> %output
|  9> Print[P_Hirshfeld] = 1
| 10> end
| 11> % maxcore
| 12> 4000
| 13> *xyz 0 2
| 14> O   -2.42901546  -0.30851891   1.67103610
| 15> O   -0.57726782  -0.26942640   0.90760587
| 16> C   -0.74008767   0.22694150  -0.42868772
| 17> C    0.15866633   0.91168032   0.53032942
| 18> C    1.52907273   0.42477000   0.28140118
| 19> C    1.48011136  -0.63832830  -0.62329081
| 20> C    0.08905675  -0.65339759  -1.30982189
| 21> H   -2.13458427   0.45296761   2.21369330
| 22> H   -1.74453930   0.57732023  -0.65724032
| 23> H   -0.11824989   1.80994081   1.08789416
| 24> H    2.42331131   0.69852669   0.83263986
| 25> H    2.17739286  -1.31275254  -0.77983892
| 26> H    0.24319322  -0.26530698  -2.33567710
| 27> H   -0.35699079  -1.65405810  -1.38989308
| 28> *
| 29>
| 30>                          ****END OF INPUT****

CARTESIAN COORDINATES (ANGSTROEM)
---------------------------------
  O     -2.429015   -0.308519    1.671036
  O     -0.577268   -0.269426    0.907606
  C     -0.740088    0.226941   -0.428688
  C      0.158666    0.911680    0.530329
  C      1.529073    0.424770    0.281401
  C      1.480111   -0.638328   -0.623291
  C      0.089057   -0.653398   -1.309822
  H     -2.134584    0.452968    2.213693
  H     -1.744539    0.577320   -0.657240
  H     -0.118250    1.809941    1.087894
  H      2.423311    0.698527    0.832640
  H      2.177393   -1.312753   -0.779839
  H      0.243193   -0.265307   -2.335677
  H     -0.356991   -1.654058   -1.389893

 Total Charge           Charge          ....    0
 Multiplicity           Mult            ....    2
 Number of Electrons    NEL             ....   53
 Basis Dimension        Dim             ....  133

ORBITAL ENERGIES
----------------
                 SPIN UP ORBITALS
  NO   OCC          E(Eh)            E(eV)
   0   1.0000     -19.241229      -523.5805
   1   1.0000     -19.195946      -522.3483
   2   1.0000     -10.302021      -280.3322
   3   1.0000     -10.297473      -280.2085
   4   1.0000     -10.252679      -278.9896
   5   1.0000     -10.250929      -278.9420
   6   1.0000     -10.250261      -278.9238
   7   1.0000      -1.122506       -30.5449
   8   1.0000      -0.952539       -25.9199
   9   1.0000      -0.838028       -22.8039
  10   1.0000      -0.748871       -20.3778
  11   1.0000      -0.693062       -18.8592
  12   1.0000      -0.605949       -16.4887
  13   1.0000      -0.588980       -16.0270
  14   1.0000      -0.564614       -15.3639
  15   1.0000      -0.482105       -13.1187
  16   1.0000      -0.469407       -12.7732
  17   1.0000      -0.444190       -12.0870
  18   1.0000      -0.427197       -11.6246
  19   1.0000      -0.418968       -11.4007
  20   1.0000      -0.407351       -11.0846
  21   1.0000      -0.377178       -10.2635
  22   1.0000      -0.367197        -9.9919
  23   1.0000      -0.329911        -8.9773
  24   1.0000      -0.288151        -7.8410
  25   1.0000      -0.278606        -7.5812
  26   1.0000      -0.243731        -6.6323
  27   0.0000      -0.020298        -0.5523
  28   0.0000       0.066825         1.8184
  29   0.0000       0.094927         2.5831
  30   0.0000       0.101394         2.7591
  31   0.0000       0.111610         3.0371

                 SPIN DOWN ORBITALS
  NO   OCC          E(Eh)            E(eV)
   0   1.0000     -19.235236      -523.4174
   1   1.0000     -19.171080      -521.6716
   2   1.0000     -10.301825      -280.3269
   3   1.0000     -10.297703      -280.2148
   4   1.0000     -10.252677      -278.9895
   5   1.0000     -10.251195      -278.9492
   6   1.0000     -10.249588      -278.9055
   7   1.0000      -1.114719       -30.3330
   8   1.0000      -0.889549       -24.2059
   9   1.0000      -0.834218       -22.7002
  10   1.0000      -0.748796       -20.3758
  11   1.0000      -0.689119       -18.7519
  12   1.0000      -0.605007       -16.4631
  13   1.0000      -0.587942       -15.9987
  14   1.0000      -0.559731       -15.2310
  15   1.0000      -0.473765       -12.8918
  16   1.0000      -0.467594       -12.7239
  17   1.0000      -0.437777       -11.9125
  18   1.0000      -0.422758       -11.5038
  19   1.0000      -0.416037       -11.3210
  20   1.0000      -0.389037       -10.5862
  21   1.0000      -0.374519       -10.1912
  22   1.0000      -0.339916        -9.2496
  23   1.0000      -0.303772        -8.2661
  24   1.0000      -0.259973        -7.0742
  25   1.0000      -0.254932        -6.9370
  26   0.0000      -0.053255        -1.4491
  27   0.0000      -0.014603        -0.3974
  28   0.0000       0.069656         1.8954
  29   0.0000       0.096170         2.6169
  30   0.0000       0.102603         2.7920

MULLIKEN ATOMIC CHARGES AND SPIN POPULATIONS
--------------------------------------------
   0 O :   -0.266049    0.877174
   1 O :   -0.298224    0.124284
   2 C :    0.040747   -0.011322
   3 C :    0.066332    0.008533
   4 C :    0.022338   -0.029551
   5 C :   -0.068925    0.049922
   6 C :    0.071964   -0.001859
   7 H :    0.160388   -0.022647
   8 H :    0.060471    0.002518
   9 H :    0.045408    0.002886
  10 H :    0.036399    0.001592
  11 H :   -0.014851   -0.002223
  12 H :    0.069323    0.000257
  13 H :    0.074679    0.000436
Sum of atomic charges         :   -0.0000000

LOEWDIN ATOMIC CHARGES AND SPIN POPULATIONS
-------------------------------------------
   0 O :   -0.177072    0.834392
   1 O :   -0.102819    0.140289
   2 C :    0.071125   -0.006061
   3 C :    0.048535    0.007164
   4 C :   -0.046479   -0.020175
   5 C :    0.024571    0.037958
   6 C :   -0.044131    0.000290
   7 H :    0.045878    0.001574
   8 H :    0.028956    0.001273
   9 H :    0.025621    0.001700
  10 H :    0.030723    0.000355
  11 H :    0.000431    0.000609
  12 H :    0.045800    0.000374
  13 H :    0.048861    0.000259

  Mayer bond orders larger than 0.100000
B(  0-O ,  1-O ) :   0.1904 B(  0-O ,  7-H ) :   0.9937 B(  1-O ,  2-C ) :   0.9014
B(  1-O ,  3-C ) :   0.8907 B(  2-C ,  3-C ) :   1.0167 B(  2-C ,  6-C ) :   1.0063
B(  2-C ,  8-H ) :   0.9607 B(  3-C ,  4-C ) :   0.9865 B(  3-C ,  9-H ) :   0.9727
B(  4-C ,  5-C ) :   1.8106 B(  4-C , 10-H ) :   0.9959 B(  5-C ,  6-C ) :   1.0076
B(  5-C , 11-H ) :   0.9982 B(  6-C , 12-H ) :   0.9294 B(  6-C , 13-H ) :   0.9287

Dispersion correction           -0.009816802
FINAL SINGLE POINT ENERGY      -344.360914488117
Dispersion correction            ... done

DIPOLE MOMENT
-------------
                                X             Y             Z
Electronic contribution:     -0.79332       0.14478       1.81534
Nuclear contribution   :      1.57128       0.65683      -2.36450
                        -----------------------------------------
Total Dipole Moment    :      0.77796       0.80161      -0.54917
                        -----------------------------------------
Magnitude (a.u.)       :      1.24475
Magnitude (Debye)      :      3.16389

Rotational constants in cm-1:     0.191984     0.068392     0.058614
Rotational constants in MHz :  5755.532892  2050.343740  1757.204659

                             ****ORCA TERMINATED NORMALLY****
TOTAL RUN TIME: 0 days 0 hours 1 minutes 10 seconds 12 msec
