                         Program Version 5.0.4 -  RELEASE  -
|  1> ! EnGrad PBE0 RIJCOSX D3BJ def2-SVP def2/J
|  2> %output
|  3> xyzfile=True
|  4> end
|  5> %scf
|  6> maxiter 250
|  7> end
|  8> %output
|  9> Print[P_Hirshfeld] = 1
| 10> end
| 11> % maxcore
| 12> 4000
| 13> *xyz 0 2
| 14> O   -2.43428702  -0.30541705   1.67498344
| 15> O   -0.57704929  -0.26585671   0.90375975
| 16> C   -0.73552959   0.22370611  -0.42240049
| 17> C    0.15868840   0.90805025   0.53014204
| 18> C    1.53227542   0.41104911   0.26925024
| 19> C    1.44802946  -0.60083614  -0.60883276
| 20> C    0.09720996  -0.65440913  -1.31093609
| 21> H   -2.13607108   0.45018703   2.21255656
| 22> H   -1.74528136   0.57761937  -0.65788992
| 23> H   -0.11743484   1.81072236   1.08717365
| 24> H    2.42369657   0.69939244   0.83407087
| 25> H    2.20145193  -1.33372475  -0.78640899
| 26> H    0.24131016  -0.26538928  -2.33537852
| 27> H   -0.35692771  -1.65474690  -1.38992868
| 28> *
| 29>
| 30>                          ****END OF INPUT****

CARTESIAN COORDINATES (ANGSTROEM)
---------------------------------
  O     -2.434287   -0.305417    1.674983
  O     -0.577049   -0.265857    0.903760
  C     -0.735530    0.223706   -0.422400
  C      0.158688    0.908050    0.530142
  C      1.532275    0.411049    0.269250
  C      1.448029   -0.600836   -0.608833
  C      0.097210   -0.654409   -1.310936
  H     -2.136071    0.450187    2.212557
  H     -1.745281    0.577619   -0.657890
  H     -0.117435    1.810722    1.087174
  H      2.423697    0.699392    0.834071
  H      2.201452   -1.333725   -0.786409
  H      0.241310   -0.265389   -2.335379
  H     -0.356928   -1.654747   -1.389929

 Total Charge           Charge          ....    0
 Multiplicity           Mult            ....    2
 Number of Electrons    NEL             ....   53
 Basis Dimension        Dim             ....  133

ORBITAL ENERGIES
----------------
                 SPIN UP ORBITALS
  NO   OCC          E(Eh)            E(eV)
   0   1.0000     -19.240682      -523.5656
   1   1.0000     -19.196661      -522.3677
   2   1.0000     -10.300331      -280.2863
   3   1.0000     -10.295903      -280.1658
   4   1.0000     -10.250885      -278.9408
   5   1.0000     -10.248647      -278.8799
   6   1.0000     -10.245032      -278.7815
   7   1.0000      -1.128307       -30.7028
   8   1.0000      -0.955262       -25.9940
   9   1.0000      -0.846277       -23.0284
  10   1.0000      -0.750220       -20.4145
  11   1.0000      -0.688771       -18.7424
  12   1.0000      -0.606557       -16.5053
  13   1.0000      -0.578151       -15.7323
  14   1.0000      -0.565728       -15.3942
  15   1.0000      -0.483829       -13.1656
  16   1.0000      -0.468850       -12.7580
  17   1.0000      -0.442365       -12.0374
  18   1.0000      -0.424728       -11.5574
  19   1.0000      -0.418569       -11.3898
  20   1.0000      -0.407329       -11.0840
  21   1.0000      -0.380015       -10.3407
  22   1.0000      -0.367583       -10.0024
  23   1.0000      -0.328774        -8.9464
  24   1.0000      -0.291186        -7.9236
  25   1.0000      -0.279847        -7.6150
  26   1.0000      -0.247942        -6.7468
  27   0.0000      -0.009918        -0.2699
  28   0.0000       0.065541         1.7835
  29   0.0000       0.094117         2.5610
  30   0.0000       0.105873         2.8810
  31   0.0000       0.109701         2.9851

                 SPIN DOWN ORBITALS
  NO   OCC          E(Eh)            E(eV)
   0   1.0000     -19.234787      -523.4052
   1   1.0000     -19.171720      -521.6890
   2   1.0000     -10.300162      -280.2816
   3   1.0000     -10.296118      -280.1716
   4   1.0000     -10.250870      -278.9403
   5   1.0000     -10.248147      -278.8662
   6   1.0000     -10.245164      -278.7851
   7   1.0000      -1.120738       -30.4968
   8   1.0000      -0.892122       -24.2759
   9   1.0000      -0.842467       -22.9247
  10   1.0000      -0.750019       -20.4091
  11   1.0000      -0.684887       -18.6367
  12   1.0000      -0.605671       -16.4811
  13   1.0000      -0.576937       -15.6993
  14   1.0000      -0.560933       -15.2638
  15   1.0000      -0.475309       -12.9338
  16   1.0000      -0.467341       -12.7170
  17   1.0000      -0.435019       -11.8375
  18   1.0000      -0.421680       -11.4745
  19   1.0000      -0.412607       -11.2276
  20   1.0000      -0.391775       -10.6607
  21   1.0000      -0.377277       -10.2662
  22   1.0000      -0.339865        -9.2482
  23   1.0000      -0.302142        -8.2217
  24   1.0000      -0.265874        -7.2348
  25   1.0000      -0.256148        -6.9701
  26   0.0000      -0.053679        -1.4607
  27   0.0000      -0.005869        -0.1597
  28   0.0000       0.068056         1.8519
  29   0.0000       0.095555         2.6002
  30   0.0000       0.106850         2.9075

MULLIKEN ATOMIC CHARGES AND SPIN POPULATIONS
--------------------------------------------
   0 O :   -0.261242    0.881453
   1 O :   -0.295774    0.121752
   2 C :    0.031009   -0.010478
   3 C :    0.059029    0.006986
   4 C :    0.029742   -0.016020
   5 C :   -0.121216    0.033925
   6 C :    0.082944   -0.000571
   7 H :    0.158902   -0.022308
   8 H :    0.060746    0.002825
   9 H :    0.044540    0.002986
  10 H :    0.037175    0.000961
  11 H :    0.031549   -0.001706
  12 H :    0.068122   -0.000028
  13 H :    0.074473    0.000223
Sum of atomic charges         :    0.0000000

LOEWDIN ATOMIC CHARGES AND SPIN POPULATIONS
-------------------------------------------
   0 O :   -0.170552    0.838358
   1 O :   -0.098173    0.137574
   2 C :    0.065175   -0.005297
   3 C :    0.048019    0.006723
   4 C :   -0.052859   -0.010135
   5 C :    0.001434    0.025794
   6 C :   -0.045852    0.000670
   7 H :    0.042672    0.002473
   8 H :    0.028820    0.001515
   9 H :    0.025063    0.001755
  10 H :    0.034314    0.000323
  11 H :    0.025643    0.000030
  12 H :    0.046182    0.000114
  13 H :    0.050113    0.000103

  Mayer bond orders larger than 0.100000
B(  0-O ,  1-O ) :   0.1853 B(  0-O ,  7-H ) :   0.9954 B(  1-O ,  2-C ) :   0.9070
B(  1-O ,  3-C ) :   0.8948 B(  2-C ,  3-C ) :   1.0203 B(  2-C ,  6-C ) :   1.0043
B(  2-C ,  8-H ) :   0.9582 B(  3-C ,  4-C ) :   0.9782 B(  3-C ,  9-H ) :   0.9720
B(  4-C ,  5-C ) :   1.8264 B(  4-C , 10-H ) :   0.9956 B(  5-C ,  6-C ) :   1.0149
B(  5-C , 11-H ) :   0.9774 B(  6-C , 12-H ) :   0.9285 B(  6-C , 13-H ) :   0.9268

Dispersion correction           -0.009809379
FINAL SINGLE POINT ENERGY      -344.375121817502
Dispersion correction            ... done

DIPOLE MOMENT
-------------
                                X             Y             Z
Electronic contribution:     -0.83253       0.18043       1.83881
Nuclear contribution   :      1.60797       0.61745      -2.37687
                        -----------------------------------------
Total Dipole Moment    :      0.77544       0.79788      -0.53807
                        -----------------------------------------
Magnitude (a.u.)       :      1.23590
Magnitude (Debye)      :      3.14140

Rotational constants in cm-1:     0.194670     0.068681     0.058826
Rotational constants in MHz :  5836.058727  2059.008947  1763.569236

                             ****ORCA TERMINATED NORMALLY****
TOTAL RUN TIME: 0 days 0 hours 1 minutes 8 seconds 465 msec
