                         Program Version 5.0.4 -  RELEASE  -
|  1> ! Opt PBE0 RIJCOSX D3BJ def2-SVP def2/J
|  2> %output
|  3> xyzfile=True
|  4> end
|  5> %scf
|  6> maxiter 250
|  7> end
|  8> %output
|  9> Print[P_Hirshfeld] = 1
| 10> end
| 11> % maxcore
| 12> 4000
| 13> %pal nprocs 8
| 14> end
| 15> *xyz 0 1
| 16> C    1.15129797   0.49966336   0.14623320
| 17> C    0.39994484  -0.45619375   1.10849364
| 18> C   -0.98344928  -0.34281578   0.44482078
| 19> C   -0.68353185  -0.52017029  -1.05105944
| 20> C   -0.04945907   0.84627618  -0.75097589
| 21> O   -1.09750706   1.07775886   0.21476971
| 22> H    1.54079763   1.39399768   0.65270391
| 23> H    1.97069717   0.01866712  -0.40899817
| 24> H    0.78832568  -1.48588527   1.10623304
| 25> H    0.37643295  -0.08653653   2.14332775
| 26> H   -1.84877834  -0.79775866   0.94737533
| 27> H   -1.58676289  -0.43195800  -1.66914716
| 28> H   -0.04318862  -1.35425572  -1.38025439
| 29> H    0.06518086   1.63921079  -1.50362230
| 30> *
| 31>
| 32>                          ****END OF INPUT****
 Total Charge           Charge          ....    0
 Multiplicity           Mult            ....    1
 Number of Electrons    NEL             ....   46
Dispersion correction           -0.009618826
FINAL SINGLE POINT ENERGY      -270.018403609536
Dispersion correction            ... done
Dispersion correction           -0.009618790
FINAL SINGLE POINT ENERGY      -270.018423101550
Dispersion correction            ... done
Dispersion correction           -0.009616958
FINAL SINGLE POINT ENERGY      -270.018436648421
Dispersion correction            ... done
                    ***********************HURRAY********************

CARTESIAN COORDINATES (ANGSTROEM)
---------------------------------
  C      1.151625    0.499158    0.145916
  C      0.400163   -0.456650    1.108472
  C     -0.980540   -0.347001    0.443344
  C     -0.683362   -0.521458   -1.052540
  C     -0.046641    0.842797   -0.752419
  O     -1.096203    1.075400    0.214022
  H      1.538500    1.395971    0.649516
  H      1.977175    0.021938   -0.402838
  H      0.794064   -1.483881    1.115933
  H      0.370971   -0.085348    2.142346
  H     -1.847557   -0.799043    0.944718
  H     -1.590892   -0.421262   -1.661647
  H     -0.052113   -1.357716   -1.391414
  H      0.064809    1.637094   -1.503510

 Multiplicity           Mult            ....    1
 Number of Electrons    NEL             ....   46
 Basis Dimension        Dim             ....  124

ORBITAL ENERGIES
----------------

  NO   OCC          E(Eh)            E(eV)
   0   2.0000     -19.200496      -522.4721
   1   2.0000     -10.284838      -279.8647
   2   2.0000     -10.284796      -279.8635
   3   2.0000     -10.236180      -278.5406
   4   2.0000     -10.232377      -278.4371
   5   2.0000     -10.232271      -278.4343
   6   2.0000      -1.082518       -29.4568
   7   2.0000      -0.814502       -22.1637
   8   2.0000      -0.730819       -19.8866
   9   2.0000      -0.722211       -19.6524
  10   2.0000      -0.583846       -15.8873
  11   2.0000      -0.557623       -15.1737
  12   2.0000      -0.539923       -14.6921
  13   2.0000      -0.483256       -13.1501
  14   2.0000      -0.471876       -12.8404
  15   2.0000      -0.447082       -12.1657
  16   2.0000      -0.384855       -10.4724
  17   2.0000      -0.366521        -9.9735
  18   2.0000      -0.363120        -9.8810
  19   2.0000      -0.362426        -9.8621
  20   2.0000      -0.334309        -9.0970
  21   2.0000      -0.324789        -8.8380
  22   2.0000      -0.261982        -7.1289
  23   0.0000       0.071030         1.9328
  24   0.0000       0.095866         2.6087
  25   0.0000       0.106074         2.8864
  26   0.0000       0.112593         3.0638
  27   0.0000       0.121958         3.3187

MULLIKEN ATOMIC CHARGES
-----------------------
   0 C :    0.038877
   1 C :    0.038891
   2 C :   -0.012787
   3 C :    0.005183
   4 C :   -0.012647
   5 O :   -0.392475
   6 H :    0.048207
   7 H :    0.037461
   8 H :    0.037614
   9 H :    0.048285
  10 H :    0.032120
  11 H :    0.057395
  12 H :    0.041607
  13 H :    0.032268
Sum of atomic charges:   -0.0000000

LOEWDIN ATOMIC CHARGES
----------------------
   0 C :   -0.049610
   1 C :   -0.049632
   2 C :    0.076893
   3 C :   -0.050194
   4 C :    0.076945
   5 O :   -0.202630
   6 H :    0.030699
   7 H :    0.026563
   8 H :    0.026560
   9 H :    0.030776
  10 H :    0.014984
  11 H :    0.033897
  12 H :    0.019718
  13 H :    0.015030

  Mayer bond orders larger than 0.100000
B(  0-C ,  1-C ) :   1.0795 B(  0-C ,  4-C ) :   1.0343 B(  0-C ,  6-H ) :   0.9313
B(  0-C ,  7-H ) :   0.9320 B(  1-C ,  2-C ) :   1.0341 B(  1-C ,  8-H ) :   0.9322
B(  1-C ,  9-H ) :   0.9313 B(  2-C ,  3-C ) :   1.0028 B(  2-C ,  5-O ) :   0.9369
B(  2-C , 10-H ) :   0.9691 B(  3-C ,  4-C ) :   1.0025 B(  3-C , 11-H ) :   0.9368
B(  3-C , 12-H ) :   0.9542 B(  4-C ,  5-O ) :   0.9374 B(  4-C , 13-H ) :   0.9691

Dispersion correction           -0.009616518
FINAL SINGLE POINT ENERGY      -270.018437158040

DIPOLE MOMENT
-------------
                                X             Y             Z
Electronic contribution:     -2.40530       1.93177       0.04375
Nuclear contribution   :      2.78646      -2.46664      -0.27847
                        -----------------------------------------
Total Dipole Moment    :      0.38115      -0.53487      -0.23472
                        -----------------------------------------
Magnitude (a.u.)       :      0.69747
Magnitude (Debye)      :      1.77282

Rotational constants in cm-1:     0.188620     0.154536     0.139535
Rotational constants in MHz :  5654.674586  4632.861599  4183.162611

                             ****ORCA TERMINATED NORMALLY****
TOTAL RUN TIME: 0 days 0 hours 0 minutes 23 seconds 924 msec
