                         Program Version 5.0.4 -  RELEASE  -
|  1> ! Opt PBE0 RIJCOSX D3BJ def2-SVP def2/J
|  2> %output
|  3> xyzfile=True
|  4> end
|  5> %scf
|  6> maxiter 250
|  7> end
|  8> %output
|  9> Print[P_Hirshfeld] = 1
| 10> end
| 11> % maxcore
| 12> 4000
| 13> %pal nprocs 8
| 14> end
| 15> *xyz 0 2
| 16> O    0.49390000   0.00000000   0.00000000
| 17> H   -0.49390000   0.00000000   0.00000000
| 18> *
| 19>
| 20>                          ****END OF INPUT****
 Total Charge           Charge          ....    0
 Multiplicity           Mult            ....    2
 Number of Electrons    NEL             ....    9
Dispersion correction           -0.000117948
FINAL SINGLE POINT ENERGY       -75.587768876749
Dispersion correction            ... done
Dispersion correction           -0.000117923
FINAL SINGLE POINT ENERGY       -75.587883510912
Dispersion correction            ... done
Dispersion correction           -0.000117923
FINAL SINGLE POINT ENERGY       -75.587883658867
Dispersion correction            ... done
                    ***********************HURRAY********************

CARTESIAN COORDINATES (ANGSTROEM)
---------------------------------
  O      0.488186    0.000000    0.000000
  H     -0.488186    0.000000    0.000000

 Multiplicity           Mult            ....    2
 Number of Electrons    NEL             ....    9
 Basis Dimension        Dim             ....   19

ORBITAL ENERGIES
----------------
                 SPIN UP ORBITALS
  NO   OCC          E(Eh)            E(eV)
   0   1.0000     -19.265105      -524.2302
   1   1.0000      -1.016524       -27.6610
   2   1.0000      -0.476231       -12.9589
   3   1.0000      -0.422839       -11.5060
   4   1.0000      -0.341921        -9.3041
   5   0.0000       0.068388         1.8609
   6   0.0000       0.576839        15.6966
   7   0.0000       0.868000        23.6195
   8   0.0000       0.897646        24.4262
   9   0.0000       0.920755        25.0550

                 SPIN DOWN ORBITALS
  NO   OCC          E(Eh)            E(eV)
   0   1.0000     -19.238126      -523.4960
   1   1.0000      -0.939142       -25.5554
   2   1.0000      -0.448089       -12.1931
   3   1.0000      -0.314193        -8.5496
   4   0.0000      -0.128849        -3.5062
   5   0.0000       0.077471         2.1081
   6   0.0000       0.584722        15.9111
   7   0.0000       0.923102        25.1189
   8   0.0000       0.937915        25.5220

MULLIKEN ATOMIC CHARGES AND SPIN POPULATIONS
--------------------------------------------
   0 O :   -0.184690    1.028540
   1 H :    0.184690   -0.028540
Sum of atomic charges         :   -0.0000000

LOEWDIN ATOMIC CHARGES AND SPIN POPULATIONS
-------------------------------------------
   0 O :   -0.068880    0.998287
   1 H :    0.068880    0.001713

  Mayer bond orders larger than 0.100000
B(  0-O ,  1-H ) :   0.9931

Dispersion correction           -0.000117923
FINAL SINGLE POINT ENERGY       -75.587883793245

DIPOLE MOMENT
-------------
                                X             Y             Z
Electronic contribution:      0.17662       0.00000       0.00000
Nuclear contribution   :     -0.86086       0.00000       0.00000
                        -----------------------------------------
Total Dipole Moment    :     -0.68425       0.00000       0.00000
                        -----------------------------------------
Magnitude (a.u.)       :      0.68425
Magnitude (Debye)      :      1.73921

Rotational constants in cm-1:     0.000000    18.648321    18.648321
Rotational constants in MHz :     0.000000 559062.595291 559062.595291

                             ****ORCA TERMINATED NORMALLY****
TOTAL RUN TIME: 0 days 0 hours 0 minutes 7 seconds 456 msec
