                         Program Version 5.0.4 -  RELEASE  -
|  1> ! Opt PBE0 RIJCOSX D3BJ def2-SVP def2/J
|  2> %output
|  3> xyzfile=True
|  4> end
|  5> %scf
|  6> maxiter 250
|  7> end
|  8> %output
|  9> Print[P_Hirshfeld] = 1
| 10> end
| 11> % maxcore
| 12> 4000
| 13> %pal nprocs 8
| 14> end
| 15> *xyz 0 2
| 16> O    2.15567183  -1.15761170   1.08519664
| 17> O    1.53975362   0.05206892   0.68122860
| 18> C    0.71202630  -0.22556872  -0.43247591
| 19> C   -0.43601418  -1.17750351  -0.07420453
| 20> C   -1.49933408  -0.27431649   0.45903235
| 21> C   -1.16564384   1.16159395   0.22526976
| 22> C    0.01753009   1.09463698  -0.75615844
| 23> H    3.08309987  -0.97492722   0.87513327
| 24> H    1.33400300  -0.61118966  -1.26238488
| 25> H   -0.10601458  -1.95654251   0.63149588
| 26> H   -0.76573189  -1.70269637  -0.99587007
| 27> H   -2.37253206  -0.61862276   1.02058054
| 28> H   -0.84386075   1.64798210   1.16923450
| 29> H   -2.00985651   1.75725757  -0.16408762
| 30> H    0.70725790   1.94724146  -0.66821679
| 31> H   -0.35005475   1.03839797  -1.79377331
| 32> *
| 33>
| 34>                          ****END OF INPUT****
 Total Charge           Charge          ....    0
 Multiplicity           Mult            ....    2
 Number of Electrons    NEL             ....   55
Dispersion correction           -0.011350991
FINAL SINGLE POINT ENERGY      -345.607086765443
Dispersion correction            ... done
Dispersion correction           -0.011363378
FINAL SINGLE POINT ENERGY      -345.607198793198
Dispersion correction            ... done
Dispersion correction           -0.011375644
FINAL SINGLE POINT ENERGY      -345.607260897615
Dispersion correction            ... done
Dispersion correction           -0.011376293
FINAL SINGLE POINT ENERGY      -345.607265009081
Dispersion correction            ... done
Dispersion correction           -0.011376425
FINAL SINGLE POINT ENERGY      -345.607267148510
Dispersion correction            ... done
                    ***********************HURRAY********************

CARTESIAN COORDINATES (ANGSTROEM)
---------------------------------
  O      2.137313   -1.137190    1.125970
  O      1.517674    0.061371    0.696633
  C      0.711822   -0.225013   -0.432777
  C     -0.433559   -1.179339   -0.081280
  C     -1.490949   -0.277058    0.460541
  C     -1.156279    1.158474    0.228445
  C      0.018174    1.094295   -0.757625
  H      3.047220   -0.993863    0.828261
  H      1.352829   -0.599368   -1.252464
  H     -0.091113   -1.956909    0.620820
  H     -0.767961   -1.715613   -0.993212
  H     -2.361961   -0.620055    1.022164
  H     -0.839936    1.649291    1.170403
  H     -2.004592    1.752386   -0.154442
  H      0.712416    1.944308   -0.687131
  H     -0.350801    1.044481   -1.794306

 Multiplicity           Mult            ....    2
 Number of Electrons    NEL             ....   55
 Basis Dimension        Dim             ....  143

ORBITAL ENERGIES
----------------
                 SPIN UP ORBITALS
  NO   OCC          E(Eh)            E(eV)
   0   1.0000     -19.258313      -524.0453
   1   1.0000     -19.255804      -523.9771
   2   1.0000     -10.281429      -279.7719
   3   1.0000     -10.234144      -278.4852
   4   1.0000     -10.231113      -278.4027
   5   1.0000     -10.229847      -278.3683
   6   1.0000     -10.227102      -278.2936
   7   1.0000      -1.148328       -31.2476
   8   1.0000      -0.931686       -25.3525
   9   1.0000      -0.841126       -22.8882
  10   1.0000      -0.730843       -19.8873
  11   1.0000      -0.709661       -19.3109
  12   1.0000      -0.589584       -16.0434
  13   1.0000      -0.573798       -15.6138
  14   1.0000      -0.532955       -14.5024
  15   1.0000      -0.520617       -14.1667
  16   1.0000      -0.500988       -13.6326
  17   1.0000      -0.454311       -12.3624
  18   1.0000      -0.437245       -11.8981
  19   1.0000      -0.411363       -11.1937
  20   1.0000      -0.379976       -10.3397
  21   1.0000      -0.373072       -10.1518
  22   1.0000      -0.363084        -9.8800
  23   1.0000      -0.362788        -9.8720
  24   1.0000      -0.349789        -9.5183
  25   1.0000      -0.304979        -8.2989
  26   1.0000      -0.274279        -7.4635
  27   1.0000      -0.194413        -5.2902
  28   0.0000       0.053645         1.4597
  29   0.0000       0.063750         1.7347
  30   0.0000       0.098760         2.6874
  31   0.0000       0.109032         2.9669
  32   0.0000       0.123580         3.3628

                 SPIN DOWN ORBITALS
  NO   OCC          E(Eh)            E(eV)
   0   1.0000     -19.258338      -524.0460
   1   1.0000     -19.255760      -523.9759
   2   1.0000     -10.281312      -279.7687
   3   1.0000     -10.234051      -278.4827
   4   1.0000     -10.231069      -278.4015
   5   1.0000     -10.228321      -278.3268
   6   1.0000     -10.215386      -277.9748
   7   1.0000      -1.148293       -31.2466
   8   1.0000      -0.930944       -25.3323
   9   1.0000      -0.832235       -22.6463
  10   1.0000      -0.727482       -19.7958
  11   1.0000      -0.697858       -18.9897
  12   1.0000      -0.587649       -15.9907
  13   1.0000      -0.559860       -15.2346
  14   1.0000      -0.527435       -14.3522
  15   1.0000      -0.517290       -14.0762
  16   1.0000      -0.497160       -13.5284
  17   1.0000      -0.448574       -12.2063
  18   1.0000      -0.432721       -11.7749
  19   1.0000      -0.401789       -10.9332
  20   1.0000      -0.375327       -10.2132
  21   1.0000      -0.366035        -9.9603
  22   1.0000      -0.360065        -9.7979
  23   1.0000      -0.356409        -9.6984
  24   1.0000      -0.348300        -9.4777
  25   1.0000      -0.304722        -8.2919
  26   1.0000      -0.273890        -7.4529
  27   0.0000      -0.021597        -0.5877
  28   0.0000       0.054217         1.4753
  29   0.0000       0.065141         1.7726
  30   0.0000       0.101193         2.7536
  31   0.0000       0.112839         3.0705

MULLIKEN ATOMIC CHARGES AND SPIN POPULATIONS
--------------------------------------------
   0 O :   -0.153163    0.000368
   1 O :   -0.270244   -0.000665
   2 C :    0.028064    0.006014
   3 C :    0.071655   -0.107332
   4 C :   -0.190650    1.075315
   5 C :    0.014018   -0.107677
   6 C :   -0.052089    0.008505
   7 H :    0.189418    0.000425
   8 H :    0.016311   -0.000197
   9 H :    0.064328    0.030846
  10 H :    0.044920    0.057147
  11 H :    0.033551   -0.051834
  12 H :    0.060272    0.058757
  13 H :    0.044553    0.031862
  14 H :    0.048609   -0.000600
  15 H :    0.050447   -0.000934
Sum of atomic charges         :    0.0000000

LOEWDIN ATOMIC CHARGES AND SPIN POPULATIONS
-------------------------------------------
   0 O :   -0.056741    0.000830
   1 O :   -0.096652   -0.000512
   2 C :    0.039078    0.004209
   3 C :   -0.067888   -0.015976
   4 C :   -0.025464    0.875375
   5 C :   -0.057072   -0.016615
   6 C :   -0.045587    0.004267
   7 H :    0.073733    0.000350
   8 H :    0.005124    0.000020
   9 H :    0.040483    0.026354
  10 H :    0.036251    0.047880
  11 H :    0.014687   -0.001308
  12 H :    0.039821    0.049054
  13 H :    0.032270    0.027008
  14 H :    0.032041   -0.000341
  15 H :    0.035915   -0.000596

  Mayer bond orders larger than 0.100000
B(  0-O ,  1-O ) :   0.9310 B(  0-O ,  7-H ) :   0.9725 B(  1-O ,  2-C ) :   0.9257
B(  2-C ,  3-C ) :   1.0205 B(  2-C ,  6-C ) :   1.0477 B(  2-C ,  8-H ) :   0.9418
B(  3-C ,  4-C ) :   1.0342 B(  3-C ,  9-H ) :   0.9220 B(  3-C , 10-H ) :   0.9216
B(  4-C ,  5-C ) :   1.0582 B(  4-C , 11-H ) :   0.9786 B(  5-C ,  6-C ) :   1.0463
B(  5-C , 12-H ) :   0.9205 B(  5-C , 13-H ) :   0.9444 B(  6-C , 14-H ) :   0.9415
B(  6-C , 15-H ) :   0.9456

Dispersion correction           -0.011376685
FINAL SINGLE POINT ENERGY      -345.607267510853

DIPOLE MOMENT
-------------
                                X             Y             Z
Electronic contribution:      3.84790      -1.27791       2.26168
Nuclear contribution   :     -3.59295       1.28209      -2.88843
                        -----------------------------------------
Total Dipole Moment    :      0.25495       0.00418      -0.62675
                        -----------------------------------------
Magnitude (a.u.)       :      0.67663
Magnitude (Debye)      :      1.71987

Rotational constants in cm-1:     0.162498     0.070700     0.060941
Rotational constants in MHz :  4871.577815  2119.519956  1826.955507

                             ****ORCA TERMINATED NORMALLY****
TOTAL RUN TIME: 0 days 0 hours 0 minutes 52 seconds 839 msec
