                         Program Version 5.0.4 -  RELEASE  -
|  1> ! SP PBE0 RIJCOSX D3BJ def2-TZVP def2/J
|  2> %output
|  3> xyzfile=True
|  4> end
|  5> %scf
|  6> maxiter 250
|  7> end
|  8> %output
|  9> Print[P_Hirshfeld] = 1
| 10> end
| 11> % maxcore
| 12> 4000
| 13> %pal nprocs 8
| 14> end
| 15> *xyz 0 1
| 16> C    0.25336813   1.49649374  -0.31356462
| 17> C   -1.02095710   1.16322929  -0.07894671
| 18> C   -1.46023557  -0.23098945   0.25954313
| 19> C   -0.28404432  -1.12758519   0.63506840
| 20> C    0.87931223  -0.93420764  -0.33077565
| 21> C    1.38068679   0.50639535  -0.30026838
| 22> H    0.50226921   2.54116639  -0.53017312
| 23> H   -1.79464420   1.93718962  -0.13048354
| 24> H   -2.19672268  -0.19908943   1.08066963
| 25> H   -2.00728167  -0.65972579  -0.60195913
| 26> H    0.05143156  -0.87582828   1.65672377
| 27> H   -0.60020976  -2.18238963   0.66109749
| 28> H    1.70080997  -1.63036151  -0.09884644
| 29> H    0.54093469  -1.17784057  -1.35344250
| 30> H    2.00267295   0.67577107   0.59963833
| 31> H    2.05270977   0.69807205  -1.15428068
| 32> *
| 33>
| 34>                          ****END OF INPUT****

CARTESIAN COORDINATES (ANGSTROEM)
---------------------------------
  C      0.253368    1.496494   -0.313565
  C     -1.020957    1.163229   -0.078947
  C     -1.460236   -0.230989    0.259543
  C     -0.284044   -1.127585    0.635068
  C      0.879312   -0.934208   -0.330776
  C      1.380687    0.506395   -0.300268
  H      0.502269    2.541166   -0.530173
  H     -1.794644    1.937190   -0.130484
  H     -2.196723   -0.199089    1.080670
  H     -2.007282   -0.659726   -0.601959
  H      0.051432   -0.875828    1.656724
  H     -0.600210   -2.182390    0.661097
  H      1.700810   -1.630362   -0.098846
  H      0.540935   -1.177841   -1.353442
  H      2.002673    0.675771    0.599638
  H      2.052710    0.698072   -1.154281

 Total Charge           Charge          ....    0
 Multiplicity           Mult            ....    1
 Number of Electrons    NEL             ....   46
 Basis Dimension        Dim             ....  246

ORBITAL ENERGIES
----------------

  NO   OCC          E(Eh)            E(eV)
   0   2.0000     -10.218965      -278.0722
   1   2.0000     -10.218951      -278.0718
   2   2.0000     -10.215518      -277.9784
   3   2.0000     -10.215269      -277.9716
   4   2.0000     -10.215106      -277.9672
   5   2.0000     -10.214209      -277.9428
   6   2.0000      -0.856685       -23.3116
   7   2.0000      -0.761878       -20.7317
   8   2.0000      -0.759735       -20.6734
   9   2.0000      -0.634468       -17.2647
  10   2.0000      -0.613547       -16.6955
  11   2.0000      -0.521962       -14.2033
  12   2.0000      -0.506705       -13.7882
  13   2.0000      -0.456992       -12.4354
  14   2.0000      -0.436967       -11.8905
  15   2.0000      -0.418756       -11.3949
  16   2.0000      -0.400298       -10.8927
  17   2.0000      -0.390233       -10.6188
  18   2.0000      -0.388549       -10.5730
  19   2.0000      -0.334269        -9.0959
  20   2.0000      -0.325652        -8.8614
  21   2.0000      -0.313527        -8.5315
  22   2.0000      -0.250525        -6.8171
  23   0.0000       0.021868         0.5950
  24   0.0000       0.045600         1.2408
  25   0.0000       0.075310         2.0493
  26   0.0000       0.081172         2.2088
  27   0.0000       0.087185         2.3724

MULLIKEN ATOMIC CHARGES
-----------------------
   0 C :   -0.187172
   1 C :   -0.187229
   2 C :   -0.139267
   3 C :   -0.194095
   4 C :   -0.193621
   5 C :   -0.139694
   6 H :    0.109089
   7 H :    0.108874
   8 H :    0.108384
   9 H :    0.100784
  10 H :    0.094799
  11 H :    0.107536
  12 H :    0.107433
  13 H :    0.094809
  14 H :    0.100809
  15 H :    0.108563
Sum of atomic charges:   -0.0000000

LOEWDIN ATOMIC CHARGES
----------------------
   0 C :   -0.181014
   1 C :   -0.181012
   2 C :   -0.262041
   3 C :   -0.263520
   4 C :   -0.263537
   5 C :   -0.262121
   6 H :    0.140572
   7 H :    0.140557
   8 H :    0.143366
   9 H :    0.145232
  10 H :    0.141611
  11 H :    0.135785
  12 H :    0.135785
  13 H :    0.141683
  14 H :    0.145265
  15 H :    0.143389

  Mayer bond orders larger than 0.100000
B(  0-C ,  1-C ) :   1.9479 B(  0-C ,  5-C ) :   1.0133 B(  0-C ,  6-H ) :   0.9556
B(  1-C ,  2-C ) :   1.0130 B(  1-C ,  7-H ) :   0.9558 B(  2-C ,  3-C ) :   1.0366
B(  2-C ,  8-H ) :   0.9489 B(  2-C ,  9-H ) :   0.9360 B(  3-C ,  4-C ) :   0.9972
B(  3-C , 10-H ) :   0.9594 B(  3-C , 11-H ) :   0.9579 B(  4-C ,  5-C ) :   1.0369
B(  4-C , 12-H ) :   0.9578 B(  4-C , 13-H ) :   0.9594 B(  5-C , 14-H ) :   0.9359
B(  5-C , 15-H ) :   0.9489

Dispersion correction           -0.011879178
FINAL SINGLE POINT ENERGY      -234.451006615746

DIPOLE MOMENT
-------------
                                X             Y             Z
Electronic contribution:     -0.51529       1.78673      -0.26381
Nuclear contribution   :      0.55289      -1.91656       0.28301
                        -----------------------------------------
Total Dipole Moment    :      0.03760      -0.12983       0.01920
                        -----------------------------------------
Magnitude (a.u.)       :      0.13652
Magnitude (Debye)      :      0.34700

Rotational constants in cm-1:     0.158711     0.152081     0.085579
Rotational constants in MHz :  4758.021973  4559.269071  2565.607133

                             ****ORCA TERMINATED NORMALLY****
TOTAL RUN TIME: 0 days 0 hours 0 minutes 15 seconds 438 msec
