                         Program Version 5.0.4 -  RELEASE  -
|  1> ! SP PBE0 RIJCOSX D3BJ def2-TZVP def2/J
|  2> %output
|  3> xyzfile=True
|  4> end
|  5> %scf
|  6> maxiter 250
|  7> end
|  8> %output
|  9> Print[P_Hirshfeld] = 1
| 10> end
| 11> % maxcore
| 12> 4000
| 13> %pal nprocs 8
| 14> end
| 15> *xyz 0 1
| 16> C   -1.84077802   0.11931158  -0.13271396
| 17> C   -0.55938490   0.46209867  -0.32364830
| 18> C    0.55937483  -0.46202751  -0.22289707
| 19> C    1.84078239  -0.11929267  -0.41382842
| 20> H   -2.64923670   0.84885670  -0.21946433
| 21> H   -2.12178667  -0.90871181   0.11736042
| 22> H   -0.31134485   1.50101446  -0.57330525
| 23> H    0.31132025  -1.50094024   0.02676029
| 24> H    2.12188160   0.90870380  -0.66390601
| 25> H    2.64917205  -0.84891300  -0.32705738
| 26> *
| 27>
| 28>                          ****END OF INPUT****

CARTESIAN COORDINATES (ANGSTROEM)
---------------------------------
  C     -1.840778    0.119312   -0.132714
  C     -0.559385    0.462099   -0.323648
  C      0.559375   -0.462028   -0.222897
  C      1.840782   -0.119293   -0.413828
  H     -2.649237    0.848857   -0.219464
  H     -2.121787   -0.908712    0.117360
  H     -0.311345    1.501014   -0.573305
  H      0.311320   -1.500940    0.026760
  H      2.121882    0.908704   -0.663906
  H      2.649172   -0.848913   -0.327057

 Total Charge           Charge          ....    0
 Multiplicity           Mult            ....    1
 Number of Electrons    NEL             ....   30
 Basis Dimension        Dim             ....  160

ORBITAL ENERGIES
----------------

  NO   OCC          E(Eh)            E(eV)
   0   2.0000     -10.234576      -278.4970
   1   2.0000     -10.234193      -278.4866
   2   2.0000     -10.225250      -278.2432
   3   2.0000     -10.225243      -278.2430
   4   2.0000      -0.832788       -22.6613
   5   2.0000      -0.757936       -20.6245
   6   2.0000      -0.624956       -17.0059
   7   2.0000      -0.569113       -15.4864
   8   2.0000      -0.482883       -13.1399
   9   2.0000      -0.478228       -13.0132
  10   2.0000      -0.408399       -11.1131
  11   2.0000      -0.398772       -10.8511
  12   2.0000      -0.357980        -9.7411
  13   2.0000      -0.343436        -9.3454
  14   2.0000      -0.249911        -6.8004
  15   0.0000      -0.033088        -0.9004
  16   0.0000       0.059947         1.6312
  17   0.0000       0.071601         1.9484
  18   0.0000       0.080182         2.1818
  19   0.0000       0.085421         2.3244

MULLIKEN ATOMIC CHARGES
-----------------------
   0 C :   -0.279825
   1 C :   -0.081722
   2 C :   -0.081727
   3 C :   -0.279842
   4 H :    0.131126
   5 H :    0.123513
   6 H :    0.106919
   7 H :    0.106917
   8 H :    0.123513
   9 H :    0.131128
Sum of atomic charges:    0.0000000

LOEWDIN ATOMIC CHARGES
----------------------
   0 C :   -0.201410
   1 C :   -0.196849
   2 C :   -0.196852
   3 C :   -0.201413
   4 H :    0.125150
   5 H :    0.125321
   6 H :    0.147791
   7 H :    0.147792
   8 H :    0.125319
   9 H :    0.125152

  Mayer bond orders larger than 0.100000
B(  0-C ,  1-C ) :   1.8713 B(  0-C ,  3-C ) :   0.1147 B(  0-C ,  4-H ) :   0.9564
B(  0-C ,  5-H ) :   0.9555 B(  1-C ,  2-C ) :   1.0774 B(  1-C ,  6-H ) :   0.9498
B(  2-C ,  3-C ) :   1.8713 B(  2-C ,  7-H ) :   0.9498 B(  3-C ,  8-H ) :   0.9555
B(  3-C ,  9-H ) :   0.9564

Dispersion correction           -0.005354912
FINAL SINGLE POINT ENERGY      -155.853470013273

DIPOLE MOMENT
-------------
                                X             Y             Z
Electronic contribution:     -0.00002       0.00011      -0.00002
Nuclear contribution   :      0.00001      -0.00010       0.00002
                        -----------------------------------------
Total Dipole Moment    :     -0.00001       0.00000       0.00000
                        -----------------------------------------
Magnitude (a.u.)       :      0.00001
Magnitude (Debye)      :      0.00003

Rotational constants in cm-1:     1.401226     0.147273     0.133267
Rotational constants in MHz : 42007.709877  4415.142921  3995.231501

                             ****ORCA TERMINATED NORMALLY****
TOTAL RUN TIME: 0 days 0 hours 0 minutes 6 seconds 947 msec
