                         Program Version 5.0.4 -  RELEASE  -
|  1> ! SP PBE0 RIJCOSX D3BJ def2-TZVP def2/J
|  2> %output
|  3> xyzfile=True
|  4> end
|  5> %scf
|  6> maxiter 250
|  7> end
|  8> %output
|  9> Print[P_Hirshfeld] = 1
| 10> end
| 11> % maxcore
| 12> 4000
| 13> %pal nprocs 8
| 14> end
| 15> *xyz 0 1
| 16> C   -0.63016909  -0.20737778  -0.05023253
| 17> C    0.63012897   0.20737764   0.05019787
| 18> H   -1.40037814   0.40492616  -0.52915446
| 19> H   -0.94921021  -1.17778071   0.34225499
| 20> H    1.40034212  -0.40492313   0.52911819
| 21> H    0.94918635   1.17777782  -0.34228405
| 22> *
| 23>
| 24>                          ****END OF INPUT****

CARTESIAN COORDINATES (ANGSTROEM)
---------------------------------
  C     -0.630169   -0.207378   -0.050233
  C      0.630129    0.207378    0.050198
  H     -1.400378    0.404926   -0.529154
  H     -0.949210   -1.177781    0.342255
  H      1.400342   -0.404923    0.529118
  H      0.949186    1.177778   -0.342284

 Total Charge           Charge          ....    0
 Multiplicity           Mult            ....    1
 Number of Electrons    NEL             ....   16
 Basis Dimension        Dim             ....   86

ORBITAL ENERGIES
----------------

  NO   OCC          E(Eh)            E(eV)
   0   2.0000     -10.225479      -278.2494
   1   2.0000     -10.224529      -278.2236
   2   2.0000      -0.784188       -21.3388
   3   2.0000      -0.595930       -16.2161
   4   2.0000      -0.482818       -13.1381
   5   2.0000      -0.434099       -11.8124
   6   2.0000      -0.365578        -9.9479
   7   2.0000      -0.289407        -7.8752
   8   0.0000       0.003523         0.0959
   9   0.0000       0.076580         2.0838
  10   0.0000       0.098843         2.6897
  11   0.0000       0.101318         2.7570
  12   0.0000       0.162659         4.4262

MULLIKEN ATOMIC CHARGES
-----------------------
   0 C :   -0.253552
   1 C :   -0.253549
   2 H :    0.126772
   3 H :    0.126778
   4 H :    0.126772
   5 H :    0.126778
Sum of atomic charges:   -0.0000000

LOEWDIN ATOMIC CHARGES
----------------------
   0 C :   -0.245286
   1 C :   -0.245287
   2 H :    0.122645
   3 H :    0.122642
   4 H :    0.122645
   5 H :    0.122641

  Mayer bond orders larger than 0.100000
B(  0-C ,  1-C ) :   2.0099 B(  0-C ,  2-H ) :   0.9550 B(  0-C ,  3-H ) :   0.9550
B(  1-C ,  4-H ) :   0.9550 B(  1-C ,  5-H ) :   0.9550

Dispersion correction           -0.001899634
FINAL SINGLE POINT ENERGY       -78.513932834435

DIPOLE MOMENT
-------------
                                X             Y             Z
Electronic contribution:     -0.00001       0.00000      -0.00000
Nuclear contribution   :      0.00002       0.00000       0.00000
                        -----------------------------------------
Total Dipole Moment    :      0.00000       0.00000       0.00000
                        -----------------------------------------
Magnitude (a.u.)       :      0.00000
Magnitude (Debye)      :      0.00000

Rotational constants in cm-1:     4.822547     1.001383     0.829202
Rotational constants in MHz : 144576.315212 30020.705101 24858.860580

                             ****ORCA TERMINATED NORMALLY****
TOTAL RUN TIME: 0 days 0 hours 0 minutes 2 seconds 949 msec
