                         Program Version 5.0.4 -  RELEASE  -
|  1> ! OptTS Freq PBE0 RIJCOSX D3BJ def2-SVP def2/J
|  2> %geom
|  3> Calc_Hess true
|  4> Recalc_Hess 20
|  5> Trust -0.1
|  6> MaxIter 100
|  7> end
|  8> %geom
|  9> modify_internal
| 10> { B 0 1 A } end
| 11> end
| 12> %geom
| 13> modify_internal
| 14> { B 1 4 A } end
| 15> end
| 16> %output
| 17> xyzfile=True
| 18> end
| 19> %scf
| 20> maxiter 250
| 21> end
| 22> %output
| 23> Print[P_Hirshfeld] = 1
| 24> end
| 25> % maxcore
| 26> 4000
| 27> %pal nprocs 8
| 28> end
| 29> *xyz 0 2
| 30> O    2.62773258  -0.21265829   0.88115918
| 31> O    0.92309664  -0.54115705   0.78443446
| 32> C    0.58203605  -0.46003794  -0.57760826
| 33> C   -0.73832347  -1.22148858  -0.41634668
| 34> C   -1.09897324  -0.31372560   0.71759577
| 35> C   -0.97412174   1.09719807   0.25595144
| 36> C    0.11001371   0.97719723  -0.83811656
| 37> H    2.73993936  -0.45141213   1.80225974
| 38> H    1.36749128  -0.84156053  -1.22868512
| 39> H   -0.59414010  -2.25655583  -0.12019201
| 40> H   -1.40940879  -1.15761992  -1.27761415
| 41> H   -1.57036445  -0.61473125   1.63457246
| 42> H   -0.67367113   1.75962411   1.06731464
| 43> H   -1.92294194   1.46925908  -0.14463068
| 44> H    0.92326717   1.68408758  -0.69541849
| 45> H   -0.29136192   1.08377107  -1.84468571
| 46> *
| 47>
| 48>                          ****END OF INPUT****
 Total Charge           Charge          ....    0
 Multiplicity           Mult            ....    2
 Number of Electrons    NEL             ....   55
Dispersion correction           -0.011454290
FINAL SINGLE POINT ENERGY      -345.558563234368
Dispersion correction            ... done
Dispersion correction in the Hessian             ... done   (      0.4 sec)
Dispersion correction           -0.011448000
FINAL SINGLE POINT ENERGY      -345.560651321597
Dispersion correction            ... done
Dispersion correction           -0.011448917
FINAL SINGLE POINT ENERGY      -345.561209362601
FINAL SINGLE POINT ENERGY      -345.561557557377
FINAL SINGLE POINT ENERGY      -345.561855507117
FINAL SINGLE POINT ENERGY      -345.561932351530
Dispersion correction           -0.011477070
FINAL SINGLE POINT ENERGY      -345.561940947484
Dispersion correction            ... done
Dispersion correction           -0.011475063
FINAL SINGLE POINT ENERGY      -345.561942880059
Dispersion correction            ... done
                    ***********************HURRAY********************

CARTESIAN COORDINATES (ANGSTROEM)
---------------------------------
  O      2.557810   -0.146721    0.759354
  O      0.899194   -0.579819    0.809125
  C      0.564153   -0.498358   -0.577105
  C     -0.758351   -1.235412   -0.427794
  C     -1.087112   -0.333965    0.726062
  C     -0.946557    1.087928    0.272716
  C      0.163701    0.958711   -0.800556
  H      2.671606   -0.243965    1.714900
  H      1.361613   -0.905009   -1.214015
  H     -0.620022   -2.286145   -0.142814
  H     -1.450678   -1.159994   -1.288241
  H     -1.608976   -0.635853    1.637801
  H     -0.670716    1.753859    1.103503
  H     -1.896983    1.469105   -0.144842
  H      1.021422    1.615007   -0.604449
  H     -0.199833    1.140822   -1.823654

 Multiplicity           Mult            ....    2
 Number of Electrons    NEL             ....   55
 Basis Dimension        Dim             ....  143

ORBITAL ENERGIES
----------------
                 SPIN UP ORBITALS
  NO   OCC          E(Eh)            E(eV)
   0   1.0000     -19.244654      -523.6736
   1   1.0000     -19.208475      -522.6892
   2   1.0000     -10.281854      -279.7835
   3   1.0000     -10.281238      -279.7667
   4   1.0000     -10.242992      -278.7260
   5   1.0000     -10.241308      -278.6802
   6   1.0000     -10.228974      -278.3445
   7   1.0000      -1.052143       -28.6303
   8   1.0000      -0.948686       -25.8151
   9   1.0000      -0.838242       -22.8097
  10   1.0000      -0.739391       -20.1199
  11   1.0000      -0.715329       -19.4651
  12   1.0000      -0.579114       -15.7585
  13   1.0000      -0.571680       -15.5562
  14   1.0000      -0.539138       -14.6707
  15   1.0000      -0.498702       -13.5704
  16   1.0000      -0.474217       -12.9041
  17   1.0000      -0.455324       -12.3900
  18   1.0000      -0.409013       -11.1298
  19   1.0000      -0.396508       -10.7895
  20   1.0000      -0.385733       -10.4963
  21   1.0000      -0.381584       -10.3834
  22   1.0000      -0.368485       -10.0270
  23   1.0000      -0.354200        -9.6383
  24   1.0000      -0.342306        -9.3146
  25   1.0000      -0.318426        -8.6648
  26   1.0000      -0.260752        -7.0954
  27   1.0000      -0.202122        -5.5000
  28   0.0000      -0.029347        -0.7986
  29   0.0000       0.068212         1.8561
  30   0.0000       0.094096         2.5605
  31   0.0000       0.109840         2.9889
  32   0.0000       0.113142         3.0787

                 SPIN DOWN ORBITALS
  NO   OCC          E(Eh)            E(eV)
   0   1.0000     -19.245289      -523.6909
   1   1.0000     -19.194240      -522.3018
   2   1.0000     -10.280732      -279.7529
   3   1.0000     -10.271056      -279.4897
   4   1.0000     -10.243788      -278.7476
   5   1.0000     -10.242027      -278.6997
   6   1.0000     -10.228858      -278.3414
   7   1.0000      -1.047629       -28.5074
   8   1.0000      -0.921344       -25.0711
   9   1.0000      -0.831189       -22.6178
  10   1.0000      -0.736112       -20.0306
  11   1.0000      -0.707077       -19.2405
  12   1.0000      -0.571704       -15.5569
  13   1.0000      -0.565913       -15.3993
  14   1.0000      -0.534218       -14.5368
  15   1.0000      -0.488431       -13.2909
  16   1.0000      -0.470423       -12.8009
  17   1.0000      -0.448270       -12.1980
  18   1.0000      -0.399355       -10.8670
  19   1.0000      -0.386968       -10.5299
  20   1.0000      -0.383441       -10.4340
  21   1.0000      -0.373165       -10.1543
  22   1.0000      -0.367239        -9.9931
  23   1.0000      -0.344591        -9.3768
  24   1.0000      -0.334544        -9.1034
  25   1.0000      -0.305922        -8.3246
  26   1.0000      -0.249870        -6.7993
  27   0.0000      -0.061846        -1.6829
  28   0.0000       0.017745         0.4829
  29   0.0000       0.070157         1.9091
  30   0.0000       0.097576         2.6552
  31   0.0000       0.112788         3.0691

MULLIKEN ATOMIC CHARGES AND SPIN POPULATIONS
--------------------------------------------
   0 O :   -0.255777    0.485192
   1 O :   -0.315074   -0.099132
   2 C :   -0.004188    0.021045
   3 C :    0.044272   -0.058975
   4 C :   -0.135308    0.652679
   5 C :    0.026163   -0.056465
   6 C :    0.062048    0.007709
   7 H :    0.169360   -0.010073
   8 H :    0.048263   -0.004086
   9 H :    0.061021    0.004009
  10 H :    0.051083    0.049573
  11 H :    0.049962   -0.029862
  12 H :    0.059295    0.012497
  13 H :    0.046693    0.028621
  14 H :    0.057882   -0.001883
  15 H :    0.034304   -0.000850
Sum of atomic charges         :    0.0000000

LOEWDIN ATOMIC CHARGES AND SPIN POPULATIONS
-------------------------------------------
   0 O :   -0.160175    0.448847
   1 O :   -0.120069   -0.055034
   2 C :    0.057564    0.020265
   3 C :   -0.055488   -0.013032
   4 C :    0.070395    0.530100
   5 C :   -0.049074   -0.012000
   6 C :   -0.046555    0.005237
   7 H :    0.054959    0.004747
   8 H :    0.018269   -0.001817
   9 H :    0.037974    0.002941
  10 H :    0.029756    0.036870
  11 H :    0.023863    0.001046
  12 H :    0.039181    0.008909
  13 H :    0.036584    0.024080
  14 H :    0.036917   -0.000813
  15 H :    0.025899   -0.000346

  Mayer bond orders larger than 0.100000
B(  0-O ,  1-O ) :   0.5923 B(  0-O ,  4-C ) :   0.1164 B(  0-O ,  7-H ) :   0.9825
B(  1-O ,  2-C ) :   0.8847 B(  1-O ,  4-C ) :   0.4292 B(  2-C ,  3-C ) :   0.9906
B(  2-C ,  6-C ) :   1.0443 B(  2-C ,  8-H ) :   0.9531 B(  3-C ,  4-C ) :   0.9909
B(  3-C ,  9-H ) :   0.9419 B(  3-C , 10-H ) :   0.9311 B(  4-C ,  5-C ) :   1.0519
B(  4-C , 11-H ) :   0.9830 B(  5-C ,  6-C ) :   1.0584 B(  5-C , 12-H ) :   0.9325
B(  5-C , 13-H ) :   0.9155 B(  6-C , 14-H ) :   0.9278 B(  6-C , 15-H ) :   0.9371

Dispersion correction           -0.011475236
FINAL SINGLE POINT ENERGY      -345.561942870188

DIPOLE MOMENT
-------------
                                X             Y             Z
Electronic contribution:      2.81009      -1.58882       1.93469
Nuclear contribution   :     -3.69463       1.62287      -1.91795
                        -----------------------------------------
Total Dipole Moment    :     -0.88454       0.03406       0.01674
                        -----------------------------------------
Magnitude (a.u.)       :      0.88535
Magnitude (Debye)      :      2.25038

Dispersion correction in the Hessian             ... done   (      0.4 sec)

VIBRATIONAL FREQUENCIES
-----------------------

Scaling factor for frequencies =  1.000000000  (already applied!)

   0:         0.00 cm**-1
   1:         0.00 cm**-1
   2:         0.00 cm**-1
   3:         0.00 cm**-1
   4:         0.00 cm**-1
   5:         0.00 cm**-1
   6:      -843.57 cm**-1 ***imaginary mode***
   7:       123.74 cm**-1
   8:       140.55 cm**-1
   9:       215.27 cm**-1
  10:       281.89 cm**-1
  11:       355.78 cm**-1
  12:       415.16 cm**-1
  13:       489.85 cm**-1
  14:       653.29 cm**-1
  15:       747.11 cm**-1
  16:       798.79 cm**-1
  17:       810.99 cm**-1
  18:       899.61 cm**-1
  19:       927.01 cm**-1
  20:       933.24 cm**-1
  21:       956.08 cm**-1
  22:       984.02 cm**-1
  23:       997.40 cm**-1
  24:      1032.65 cm**-1
  25:      1038.62 cm**-1
  26:      1079.59 cm**-1
  27:      1141.19 cm**-1
  28:      1149.31 cm**-1
  29:      1205.00 cm**-1
  30:      1256.45 cm**-1
  31:      1268.35 cm**-1
  32:      1276.99 cm**-1
  33:      1293.60 cm**-1
  34:      1340.71 cm**-1
  35:      1358.91 cm**-1
  36:      1433.00 cm**-1
  37:      1444.81 cm**-1
  38:      1465.19 cm**-1
  39:      3026.48 cm**-1
  40:      3041.51 cm**-1
  41:      3093.34 cm**-1
  42:      3129.14 cm**-1
  43:      3150.42 cm**-1
  44:      3165.10 cm**-1
  45:      3172.85 cm**-1
  46:      3225.65 cm**-1
  47:      3853.67 cm**-1

IR SPECTRUM
-----------

 Mode   freq       eps      Int      T**2         TX        TY        TZ
       cm**-1   L/(mol*cm) km/mol    a.u.
----------------------------------------------------------------------------
  7:    123.74   0.000133    0.67  0.000336  ( 0.014670  0.010182  0.004153)
  8:    140.55   0.020581  104.01  0.045695  (-0.055530  0.205082  0.023506)
  9:    215.27   0.000224    1.13  0.000325  ( 0.006181 -0.016936  0.000206)
 10:    281.89   0.000045    0.23  0.000050  ( 0.003422  0.004175  0.004543)
 11:    355.78   0.006329   31.98  0.005551  ( 0.072992 -0.012058  0.008835)
 12:    415.16   0.000732    3.70  0.000550  ( 0.020820  0.008886 -0.006134)
 13:    489.85   0.001943    9.82  0.001238  (-0.011215  0.033055 -0.004384)
 14:    653.29   0.001098    5.55  0.000524  ( 0.019221 -0.002948  0.012089)
 15:    747.11   0.000588    2.97  0.000245  ( 0.009976  0.010604  0.005790)
 16:    798.79   0.000457    2.31  0.000179  ( 0.006527  0.007649 -0.008803)
 17:    810.99   0.000524    2.65  0.000201  (-0.002328  0.000959  0.013969)
 18:    899.61   0.001190    6.02  0.000413  (-0.013992 -0.000723  0.014718)
 19:    927.01   0.001489    7.52  0.000501  (-0.018685  0.006601  0.010415)
 20:    933.24   0.000366    1.85  0.000122  (-0.006601 -0.001857  0.008680)
 21:    956.08   0.000847    4.28  0.000276  ( 0.006592  0.015175 -0.001645)
 22:    984.02   0.010288   51.99  0.003263  ( 0.053740  0.008377 -0.017447)
 23:    997.40   0.000700    3.54  0.000219  ( 0.005310  0.004676  0.012999)
 24:   1032.65   0.001651    8.34  0.000499  (-0.022230 -0.000307 -0.002133)
 25:   1038.62   0.001386    7.00  0.000416  ( 0.013571  0.014992  0.002716)
 26:   1079.59   0.006634   33.53  0.001918  ( 0.039161 -0.002329  0.019457)
 27:   1141.19   0.001692    8.55  0.000463  ( 0.005353 -0.002132  0.020726)
 28:   1149.31   0.002078   10.50  0.000564  ( 0.017704  0.001274  0.015788)
 29:   1205.00   0.001384    7.00  0.000359  (-0.002987 -0.007956  0.016920)
 30:   1256.45   0.001410    7.13  0.000350  (-0.008198 -0.008463  0.014542)
 31:   1268.35   0.001029    5.20  0.000253  ( 0.005121 -0.015015  0.001266)
 32:   1276.99   0.000294    1.49  0.000072  (-0.001380 -0.006023  0.005810)
 33:   1293.60   0.001357    6.86  0.000327  ( 0.013610 -0.006890 -0.009730)
 34:   1340.71   0.001287    6.51  0.000300  (-0.016459  0.005087  0.001690)
 35:   1358.91   0.000129    0.65  0.000030  ( 0.004178 -0.000230  0.003466)
 36:   1433.00   0.000606    3.06  0.000132  ( 0.008102 -0.005011 -0.006416)
 37:   1444.81   0.001620    8.19  0.000350  ( 0.005498  0.017792  0.001754)
 38:   1465.19   0.001218    6.15  0.000259  ( 0.001373 -0.013846  0.008107)
 39:   3026.48   0.005791   29.27  0.000597  (-0.014392 -0.009250 -0.017448)
 40:   3041.51   0.004861   24.56  0.000499  ( 0.019329 -0.011167 -0.000641)
 41:   3093.34   0.004273   21.59  0.000431  ( 0.002202 -0.010081  0.018016)
 42:   3129.14   0.001437    7.26  0.000143  (-0.000122  0.007368  0.009433)
 43:   3150.42   0.004321   21.84  0.000428  (-0.009590  0.005649  0.017439)
 44:   3165.10   0.001602    8.09  0.000158  ( 0.002081 -0.012392 -0.000171)
 45:   3172.85   0.000925    4.68  0.000091  ( 0.005631  0.003300  0.006958)
 46:   3225.65   0.001291    6.53  0.000125  (-0.002307  0.004139 -0.010123)
 47:   3853.67   0.013401   67.72  0.001085  (-0.024965  0.001476 -0.021441)

--------------------------
THERMOCHEMISTRY AT 298.15K
--------------------------

Temperature         ... 298.15 K
Pressure            ... 1.00 atm
Total Mass          ... 101.12 AMU

Throughout the following assumptions are being made:
  (1) The electronic state is orbitally nondegenerate
      but the spin degeneracy is treated
  (2) There are no thermally accessible electronically excited states
  (3) Hindered rotations indicated by low frequency modes are not
      treated as such but are treated as vibrations and this may
      cause some error
  (4) All equations used are the standard statistical mechanics
      equations for an ideal gas
  (5) All vibrations are strictly harmonic

freq.     123.74  E(vib)   ...       0.43
freq.     140.55  E(vib)   ...       0.41
freq.     215.27  E(vib)   ...       0.34
freq.     281.89  E(vib)   ...       0.28
freq.     355.78  E(vib)   ...       0.22
freq.     415.16  E(vib)   ...       0.19
freq.     489.85  E(vib)   ...       0.15
freq.     653.29  E(vib)   ...       0.08
freq.     747.11  E(vib)   ...       0.06
freq.     798.79  E(vib)   ...       0.05
freq.     810.99  E(vib)   ...       0.05
freq.     899.61  E(vib)   ...       0.03
freq.     927.01  E(vib)   ...       0.03
freq.     933.24  E(vib)   ...       0.03
freq.     956.08  E(vib)   ...       0.03
freq.     984.02  E(vib)   ...       0.02
freq.     997.40  E(vib)   ...       0.02
freq.    1032.65  E(vib)   ...       0.02
freq.    1038.62  E(vib)   ...       0.02
freq.    1079.59  E(vib)   ...       0.02
freq.    1141.19  E(vib)   ...       0.01
freq.    1149.31  E(vib)   ...       0.01
freq.    1205.00  E(vib)   ...       0.01
freq.    1256.45  E(vib)   ...       0.01
freq.    1268.35  E(vib)   ...       0.01
freq.    1276.99  E(vib)   ...       0.01
freq.    1293.60  E(vib)   ...       0.01
freq.    1340.71  E(vib)   ...       0.01
freq.    1358.91  E(vib)   ...       0.01
freq.    1433.00  E(vib)   ...       0.00
freq.    1444.81  E(vib)   ...       0.00
freq.    1465.19  E(vib)   ...       0.00
freq.    3026.48  E(vib)   ...       0.00
freq.    3041.51  E(vib)   ...       0.00
freq.    3093.34  E(vib)   ...       0.00
freq.    3129.14  E(vib)   ...       0.00
freq.    3150.42  E(vib)   ...       0.00
freq.    3165.10  E(vib)   ...       0.00
freq.    3172.85  E(vib)   ...       0.00
freq.    3225.65  E(vib)   ...       0.00
freq.    3853.67  E(vib)   ...       0.00

------------
INNER ENERGY
------------

The inner energy is: U= E(el) + E(ZPE) + E(vib) + E(rot) + E(trans)
    E(el)   - is the total energy from the electronic structure calculation
              = E(kin-el) + E(nuc-el) + E(el-el) + E(nuc-nuc)
    E(ZPE)  - the the zero temperature vibrational energy from the frequency calculation
    E(vib)  - the the finite temperature correction to E(ZPE) due to population
              of excited vibrational states
    E(rot)  - is the rotational thermal energy
    E(trans)- is the translational thermal energy

Summary of contributions to the inner energy U:
Electronic energy                ...   -345.56194287 Eh
Zero point energy                ...      0.13298193 Eh      83.45 kcal/mol
Thermal vibrational correction   ...      0.00410068 Eh       2.57 kcal/mol
Thermal rotational correction    ...      0.00141627 Eh       0.89 kcal/mol
Thermal translational correction ...      0.00141627 Eh       0.89 kcal/mol
-----------------------------------------------------------------------
Total thermal energy                   -345.42202772 Eh

Summary of corrections to the electronic energy:
(perhaps to be used in another calculation)
Total thermal correction                  0.00693322 Eh       4.35 kcal/mol
Non-thermal (ZPE) correction              0.13298193 Eh      83.45 kcal/mol
-----------------------------------------------------------------------
Total correction                          0.13991515 Eh      87.80 kcal/mol

--------
ENTHALPY
--------

The enthalpy is H = U + kB*T
                kB is Boltzmann's constant
Total free energy                 ...   -345.42202772 Eh
Thermal Enthalpy correction       ...      0.00094421 Eh       0.59 kcal/mol
-----------------------------------------------------------------------
Total Enthalpy                    ...   -345.42108351 Eh

Note: Only C1 symmetry has been detected, increase convergence thresholds
      if your molecule has a higher symmetry. Symmetry factor of 1.0 is
      used for the rotational entropy correction.

Note: Rotational entropy computed according to Herzberg
Infrared and Raman Spectra, Chapter V,1, Van Nostrand Reinhold, 1945
Point Group:  C1, Symmetry Number:   1
Rotational constants in cm-1:     0.146302     0.077500     0.070076

Vibrational entropy computed according to the QRRHO of S. Grimme
Chem.Eur.J. 2012 18 9955

-------
ENTROPY
-------

The entropy contributions are T*S = T*(S(el)+S(vib)+S(rot)+S(trans))
     S(el)   - electronic entropy
     S(vib)  - vibrational entropy
     S(rot)  - rotational entropy
     S(trans)- translational entropy
The entropies will be listed as multiplied by the temperature to get
units of energy

Electronic entropy                ...      0.00065446 Eh      0.41 kcal/mol
Vibrational entropy               ...      0.00676492 Eh      4.25 kcal/mol
Rotational entropy                ...      0.01288047 Eh      8.08 kcal/mol
Translational entropy             ...      0.01888709 Eh     11.85 kcal/mol
-----------------------------------------------------------------------
Final entropy term                ...      0.03918693 Eh     24.59 kcal/mol

In case the symmetry of your molecule has not been determined correctly
or in case you have a reason to use a different symmetry number we print
out the resulting rotational entropy values for sn=1,12 :
 --------------------------------------------------------
|  sn= 1 | S(rot)=       0.01288047 Eh      8.08 kcal/mol|
|  sn= 2 | S(rot)=       0.01222601 Eh      7.67 kcal/mol|
|  sn= 3 | S(rot)=       0.01184318 Eh      7.43 kcal/mol|
|  sn= 4 | S(rot)=       0.01157155 Eh      7.26 kcal/mol|
|  sn= 5 | S(rot)=       0.01136087 Eh      7.13 kcal/mol|
|  sn= 6 | S(rot)=       0.01118872 Eh      7.02 kcal/mol|
|  sn= 7 | S(rot)=       0.01104318 Eh      6.93 kcal/mol|
|  sn= 8 | S(rot)=       0.01091710 Eh      6.85 kcal/mol|
|  sn= 9 | S(rot)=       0.01080589 Eh      6.78 kcal/mol|
|  sn=10 | S(rot)=       0.01070641 Eh      6.72 kcal/mol|
|  sn=11 | S(rot)=       0.01061642 Eh      6.66 kcal/mol|
|  sn=12 | S(rot)=       0.01053427 Eh      6.61 kcal/mol|
 --------------------------------------------------------

-------------------
GIBBS FREE ENERGY
-------------------

The Gibbs free energy is G = H - T*S

                             ****ORCA TERMINATED NORMALLY****
TOTAL RUN TIME: 0 days 0 hours 3 minutes 46 seconds 859 msec
