                         Program Version 5.0.4 -  RELEASE  -
|  1> ! Freq PBE0 RIJCOSX D3BJ def2-SVP def2/J
|  2> %output
|  3> xyzfile=True
|  4> end
|  5> %scf
|  6> maxiter 250
|  7> end
|  8> %output
|  9> Print[P_Hirshfeld] = 1
| 10> end
| 11> % maxcore
| 12> 4000
| 13> %pal nprocs 8
| 14> end
| 15> *xyz 0 2
| 16> O    2.62773258  -0.21265829   0.88115918
| 17> O    0.92309664  -0.54115705   0.78443446
| 18> C    0.58203605  -0.46003794  -0.57760826
| 19> C   -0.73832347  -1.22148858  -0.41634668
| 20> C   -1.09897324  -0.31372560   0.71759577
| 21> C   -0.97412174   1.09719807   0.25595144
| 22> C    0.11001371   0.97719723  -0.83811656
| 23> H    2.73993936  -0.45141213   1.80225974
| 24> H    1.36749128  -0.84156053  -1.22868512
| 25> H   -0.59414010  -2.25655583  -0.12019201
| 26> H   -1.40940879  -1.15761992  -1.27761415
| 27> H   -1.57036445  -0.61473125   1.63457246
| 28> H   -0.67367113   1.75962411   1.06731464
| 29> H   -1.92294194   1.46925908  -0.14463068
| 30> H    0.92326717   1.68408758  -0.69541849
| 31> H   -0.29136192   1.08377107  -1.84468571
| 32> *
| 33>
| 34>                          ****END OF INPUT****

CARTESIAN COORDINATES (ANGSTROEM)
---------------------------------
  O      2.627733   -0.212658    0.881159
  O      0.923097   -0.541157    0.784434
  C      0.582036   -0.460038   -0.577608
  C     -0.738323   -1.221489   -0.416347
  C     -1.098973   -0.313726    0.717596
  C     -0.974122    1.097198    0.255951
  C      0.110014    0.977197   -0.838117
  H      2.739939   -0.451412    1.802260
  H      1.367491   -0.841561   -1.228685
  H     -0.594140   -2.256556   -0.120192
  H     -1.409409   -1.157620   -1.277614
  H     -1.570364   -0.614731    1.634572
  H     -0.673671    1.759624    1.067315
  H     -1.922942    1.469259   -0.144631
  H      0.923267    1.684088   -0.695418
  H     -0.291362    1.083771   -1.844686

 Total Charge           Charge          ....    0
 Multiplicity           Mult            ....    2
 Number of Electrons    NEL             ....   55
 Basis Dimension        Dim             ....  143

ORBITAL ENERGIES
----------------
                 SPIN UP ORBITALS
  NO   OCC          E(Eh)            E(eV)
   0   1.0000     -19.240903      -523.5716
   1   1.0000     -19.206810      -522.6439
   2   1.0000     -10.280558      -279.7482
   3   1.0000     -10.279677      -279.7242
   4   1.0000     -10.241090      -278.6742
   5   1.0000     -10.238796      -278.6118
   6   1.0000     -10.227228      -278.2970
   7   1.0000      -1.048014       -28.5179
   8   1.0000      -0.951459       -25.8905
   9   1.0000      -0.843086       -22.9415
  10   1.0000      -0.740681       -20.1549
  11   1.0000      -0.716390       -19.4940
  12   1.0000      -0.581496       -15.8233
  13   1.0000      -0.574379       -15.6296
  14   1.0000      -0.541020       -14.7219
  15   1.0000      -0.502393       -13.6708
  16   1.0000      -0.474683       -12.9168
  17   1.0000      -0.451998       -12.2995
  18   1.0000      -0.417590       -11.3632
  19   1.0000      -0.399602       -10.8737
  20   1.0000      -0.386896       -10.5280
  21   1.0000      -0.383620       -10.4388
  22   1.0000      -0.369401       -10.0519
  23   1.0000      -0.348734        -9.4895
  24   1.0000      -0.344625        -9.3777
  25   1.0000      -0.313345        -8.5266
  26   1.0000      -0.258572        -7.0361
  27   1.0000      -0.202302        -5.5049
  28   0.0000      -0.039781        -1.0825
  29   0.0000       0.069680         1.8961
  30   0.0000       0.094855         2.5811
  31   0.0000       0.113440         3.0869
  32   0.0000       0.114112         3.1051

                 SPIN DOWN ORBITALS
  NO   OCC          E(Eh)            E(eV)
   0   1.0000     -19.242555      -523.6166
   1   1.0000     -19.192247      -522.2476
   2   1.0000     -10.279886      -279.7299
   3   1.0000     -10.268815      -279.4287
   4   1.0000     -10.241916      -278.6967
   5   1.0000     -10.239535      -278.6319
   6   1.0000     -10.227115      -278.2939
   7   1.0000      -1.046577       -28.4788
   8   1.0000      -0.921940       -25.0873
   9   1.0000      -0.836239       -22.7552
  10   1.0000      -0.737278       -20.0624
  11   1.0000      -0.708154       -19.2698
  12   1.0000      -0.573534       -15.6067
  13   1.0000      -0.568613       -15.4728
  14   1.0000      -0.536746       -14.6056
  15   1.0000      -0.492963       -13.4142
  16   1.0000      -0.470778       -12.8105
  17   1.0000      -0.445460       -12.1216
  18   1.0000      -0.406364       -11.0577
  19   1.0000      -0.391903       -10.6642
  20   1.0000      -0.384265       -10.4564
  21   1.0000      -0.376646       -10.2491
  22   1.0000      -0.368592       -10.0299
  23   1.0000      -0.345555        -9.4030
  24   1.0000      -0.330298        -8.9879
  25   1.0000      -0.298788        -8.1304
  26   1.0000      -0.248462        -6.7610
  27   0.0000      -0.062665        -1.7052
  28   0.0000       0.007526         0.2048
  29   0.0000       0.071541         1.9467
  30   0.0000       0.098363         2.6766
  31   0.0000       0.115400         3.1402

MULLIKEN ATOMIC CHARGES AND SPIN POPULATIONS
--------------------------------------------
   0 O :   -0.254673    0.500520
   1 O :   -0.306381   -0.133439
   2 C :    0.002861    0.030828
   3 C :    0.057166   -0.062205
   4 C :   -0.134487    0.665566
   5 C :    0.042670   -0.058916
   6 C :    0.055961    0.007036
   7 H :    0.165532   -0.010064
   8 H :    0.041530   -0.004918
   9 H :    0.055430    0.003759
  10 H :    0.044723    0.050423
  11 H :    0.043603   -0.030911
  12 H :    0.058340    0.013882
  13 H :    0.044022    0.030558
  14 H :    0.053154   -0.001622
  15 H :    0.030551   -0.000496
Sum of atomic charges         :    0.0000000

LOEWDIN ATOMIC CHARGES AND SPIN POPULATIONS
-------------------------------------------
   0 O :   -0.158692    0.461866
   1 O :   -0.115794   -0.088328
   2 C :    0.056042    0.026317
   3 C :   -0.049876   -0.012745
   4 C :    0.077534    0.538618
   5 C :   -0.046822   -0.011369
   6 C :   -0.044370    0.005126
   7 H :    0.049425    0.006110
   8 H :    0.015956   -0.002326
   9 H :    0.034953    0.002720
  10 H :    0.026572    0.037288
  11 H :    0.020309    0.001991
  12 H :    0.039166    0.010057
  13 H :    0.036229    0.025504
  14 H :    0.034934   -0.000698
  15 H :    0.024435   -0.000132

  Mayer bond orders larger than 0.100000
B(  0-O ,  1-O ) :   0.5777 B(  0-O ,  4-C ) :   0.1096 B(  0-O ,  7-H ) :   0.9867
B(  1-O ,  2-C ) :   0.9113 B(  1-O ,  4-C ) :   0.4135 B(  2-C ,  3-C ) :   0.9904
B(  2-C ,  6-C ) :   1.0348 B(  2-C ,  8-H ) :   0.9548 B(  3-C ,  4-C ) :   0.9970
B(  3-C ,  9-H ) :   0.9432 B(  3-C , 10-H ) :   0.9289 B(  4-C ,  5-C ) :   1.0543
B(  4-C , 11-H ) :   0.9888 B(  5-C ,  6-C ) :   1.0642 B(  5-C , 12-H ) :   0.9309
B(  5-C , 13-H ) :   0.9132 B(  6-C , 14-H ) :   0.9314 B(  6-C , 15-H ) :   0.9354

Dispersion correction           -0.011454290
FINAL SINGLE POINT ENERGY      -345.558563232672

DIPOLE MOMENT
-------------
                                X             Y             Z
Electronic contribution:      2.87328      -1.53338       2.02423
Nuclear contribution   :     -3.79644       1.49586      -2.03317
                        -----------------------------------------
Total Dipole Moment    :     -0.92316      -0.03752      -0.00894
                        -----------------------------------------
Magnitude (a.u.)       :      0.92397
Magnitude (Debye)      :      2.34854

Dispersion correction in the Hessian             ... done   (      0.4 sec)

VIBRATIONAL FREQUENCIES
-----------------------

Scaling factor for frequencies =  1.000000000  (already applied!)

   0:         0.00 cm**-1
   1:         0.00 cm**-1
   2:         0.00 cm**-1
   3:         0.00 cm**-1
   4:         0.00 cm**-1
   5:         0.00 cm**-1
   6:      -815.25 cm**-1 ***imaginary mode***
   7:      -403.79 cm**-1 ***imaginary mode***
   8:        87.41 cm**-1
   9:       121.42 cm**-1
  10:       235.01 cm**-1
  11:       296.76 cm**-1
  12:       370.59 cm**-1
  13:       455.87 cm**-1
  14:       531.85 cm**-1
  15:       717.49 cm**-1
  16:       751.23 cm**-1
  17:       795.98 cm**-1
  18:       883.00 cm**-1
  19:       886.76 cm**-1
  20:       910.99 cm**-1
  21:       919.47 cm**-1
  22:       949.42 cm**-1
  23:       966.78 cm**-1
  24:      1015.62 cm**-1
  25:      1023.07 cm**-1
  26:      1060.02 cm**-1
  27:      1123.41 cm**-1
  28:      1146.14 cm**-1
  29:      1178.64 cm**-1
  30:      1224.01 cm**-1
  31:      1245.04 cm**-1
  32:      1253.59 cm**-1
  33:      1276.96 cm**-1
  34:      1323.10 cm**-1
  35:      1339.58 cm**-1
  36:      1413.87 cm**-1
  37:      1425.11 cm**-1
  38:      1447.81 cm**-1
  39:      3135.40 cm**-1
  40:      3140.36 cm**-1
  41:      3195.43 cm**-1
  42:      3224.65 cm**-1
  43:      3236.03 cm**-1
  44:      3272.04 cm**-1
  45:      3276.58 cm**-1
  46:      3405.94 cm**-1
  47:      3979.07 cm**-1

IR SPECTRUM
-----------

 Mode   freq       eps      Int      T**2         TX        TY        TZ
       cm**-1   L/(mol*cm) km/mol    a.u.
----------------------------------------------------------------------------
  8:     87.41   0.000096    0.49  0.000343  (-0.013247 -0.012178 -0.004368)
  9:    121.42   0.000123    0.62  0.000315  ( 0.015099  0.008310  0.004227)
 10:    235.01   0.000043    0.22  0.000057  ( 0.002418  0.004346  0.005709)
 11:    296.76   0.004978   25.16  0.005235  (-0.070678  0.012296 -0.009384)
 12:    370.59   0.000314    1.59  0.000264  (-0.008113 -0.012072  0.007259)
 13:    455.87   0.002039   10.30  0.001396  ( 0.012245 -0.034648  0.006723)
 14:    531.85   0.001146    5.79  0.000672  (-0.019999 -0.006791 -0.015042)
 15:    717.49   0.000620    3.14  0.000270  ( 0.010531  0.011083  0.006012)
 16:    751.23   0.000166    0.84  0.000069  ( 0.005000  0.006618 -0.000211)
 17:    795.98   0.000204    1.03  0.000080  ( 0.004324  0.001230 -0.007730)
 18:    883.00   0.007751   39.17  0.002739  (-0.052163 -0.000229  0.004280)
 19:    886.76   0.003030   15.31  0.001066  (-0.028316  0.000489  0.016258)
 20:    910.99   0.000569    2.88  0.000195  (-0.013811 -0.001716 -0.001099)
 21:    919.47   0.007206   36.41  0.002446  ( 0.047488  0.013586 -0.002425)
 22:    949.42   0.001191    6.02  0.000392  (-0.010762  0.016078  0.004156)
 23:    966.78   0.000324    1.64  0.000105  ( 0.008223  0.000109  0.006074)
 24:   1015.62   0.001522    7.69  0.000468  ( 0.019388 -0.000486  0.009574)
 25:   1023.07   0.000594    3.00  0.000181  (-0.007685  0.008638  0.006889)
 26:   1060.02   0.001326    6.70  0.000390  ( 0.013045 -0.006418  0.013381)
 27:   1123.41   0.000873    4.41  0.000242  ( 0.015242  0.003175  0.000169)
 28:   1146.14   0.003011   15.22  0.000820  (-0.007946  0.001614 -0.027462)
 29:   1178.64   0.002801   14.16  0.000742  ( 0.000278 -0.010961  0.024928)
 30:   1224.01   0.001353    6.84  0.000345  (-0.003812 -0.007534  0.016540)
 31:   1245.04   0.000111    0.56  0.000028  (-0.002383  0.000331  0.004689)
 32:   1253.59   0.001600    8.08  0.000398  ( 0.008753 -0.017800  0.002175)
 33:   1276.96   0.002241   11.32  0.000548  (-0.016744  0.003363  0.015996)
 34:   1323.10   0.000879    4.44  0.000207  (-0.013685  0.003676 -0.002552)
 35:   1339.58   0.000083    0.42  0.000019  ( 0.000904 -0.002339  0.003614)
 36:   1413.87   0.000679    3.43  0.000150  (-0.007425  0.006966  0.006803)
 37:   1425.11   0.001601    8.09  0.000351  ( 0.004102  0.018245  0.000939)
 38:   1447.81   0.001178    5.95  0.000254  ( 0.002708 -0.013001  0.008800)
 39:   3135.40   0.003955   19.99  0.000394  (-0.014641  0.012536  0.004701)
 40:   3140.36   0.006112   30.89  0.000607  ( 0.017060  0.007094  0.016307)
 41:   3195.43   0.003585   18.12  0.000350  ( 0.001751 -0.009626  0.015950)
 42:   3224.65   0.001073    5.42  0.000104  ( 0.000012  0.005975  0.008254)
 43:   3236.03   0.004913   24.83  0.000474  (-0.010679  0.006501  0.017818)
 44:   3272.04   0.001309    6.62  0.000125  ( 0.000752 -0.010873  0.002469)
 45:   3276.58   0.001300    6.57  0.000124  ( 0.006490  0.003289  0.008421)
 46:   3405.94   0.001054    5.33  0.000097  ( 0.004781 -0.003700  0.007746)
 47:   3979.07   0.015667   79.18  0.001229  (-0.027301  0.004216 -0.021578)

--------------------------
THERMOCHEMISTRY AT 298.15K
--------------------------

Temperature         ... 298.15 K
Pressure            ... 1.00 atm
Total Mass          ... 101.12 AMU

Throughout the following assumptions are being made:
  (1) The electronic state is orbitally nondegenerate
      but the spin degeneracy is treated
  (2) There are no thermally accessible electronically excited states
  (3) Hindered rotations indicated by low frequency modes are not
      treated as such but are treated as vibrations and this may
      cause some error
  (4) All equations used are the standard statistical mechanics
      equations for an ideal gas
  (5) All vibrations are strictly harmonic

freq.      87.41  E(vib)   ...       0.48
freq.     121.42  E(vib)   ...       0.44
freq.     235.01  E(vib)   ...       0.32
freq.     296.76  E(vib)   ...       0.27
freq.     370.59  E(vib)   ...       0.21
freq.     455.87  E(vib)   ...       0.16
freq.     531.85  E(vib)   ...       0.13
freq.     717.49  E(vib)   ...       0.07
freq.     751.23  E(vib)   ...       0.06
freq.     795.98  E(vib)   ...       0.05
freq.     883.00  E(vib)   ...       0.04
freq.     886.76  E(vib)   ...       0.04
freq.     910.99  E(vib)   ...       0.03
freq.     919.47  E(vib)   ...       0.03
freq.     949.42  E(vib)   ...       0.03
freq.     966.78  E(vib)   ...       0.03
freq.    1015.62  E(vib)   ...       0.02
freq.    1023.07  E(vib)   ...       0.02
freq.    1060.02  E(vib)   ...       0.02
freq.    1123.41  E(vib)   ...       0.01
freq.    1146.14  E(vib)   ...       0.01
freq.    1178.64  E(vib)   ...       0.01
freq.    1224.01  E(vib)   ...       0.01
freq.    1245.04  E(vib)   ...       0.01
freq.    1253.59  E(vib)   ...       0.01
freq.    1276.96  E(vib)   ...       0.01
freq.    1323.10  E(vib)   ...       0.01
freq.    1339.58  E(vib)   ...       0.01
freq.    1413.87  E(vib)   ...       0.00
freq.    1425.11  E(vib)   ...       0.00
freq.    1447.81  E(vib)   ...       0.00
freq.    3135.40  E(vib)   ...       0.00
freq.    3140.36  E(vib)   ...       0.00
freq.    3195.43  E(vib)   ...       0.00
freq.    3224.65  E(vib)   ...       0.00
freq.    3236.03  E(vib)   ...       0.00
freq.    3272.04  E(vib)   ...       0.00
freq.    3276.58  E(vib)   ...       0.00
freq.    3405.94  E(vib)   ...       0.00
freq.    3979.07  E(vib)   ...       0.00

------------
INNER ENERGY
------------

The inner energy is: U= E(el) + E(ZPE) + E(vib) + E(rot) + E(trans)
    E(el)   - is the total energy from the electronic structure calculation
              = E(kin-el) + E(nuc-el) + E(el-el) + E(nuc-nuc)
    E(ZPE)  - the the zero temperature vibrational energy from the frequency calculation
    E(vib)  - the the finite temperature correction to E(ZPE) due to population
              of excited vibrational states
    E(rot)  - is the rotational thermal energy
    E(trans)- is the translational thermal energy

Summary of contributions to the inner energy U:
Electronic energy                ...   -345.55856323 Eh
Zero point energy                ...      0.13268381 Eh      83.26 kcal/mol
Thermal vibrational correction   ...      0.00402118 Eh       2.52 kcal/mol
Thermal rotational correction    ...      0.00141627 Eh       0.89 kcal/mol
Thermal translational correction ...      0.00141627 Eh       0.89 kcal/mol
-----------------------------------------------------------------------
Total thermal energy                   -345.41902570 Eh

Summary of corrections to the electronic energy:
(perhaps to be used in another calculation)
Total thermal correction                  0.00685372 Eh       4.30 kcal/mol
Non-thermal (ZPE) correction              0.13268381 Eh      83.26 kcal/mol
-----------------------------------------------------------------------
Total correction                          0.13953754 Eh      87.56 kcal/mol

--------
ENTHALPY
--------

The enthalpy is H = U + kB*T
                kB is Boltzmann's constant
Total free energy                 ...   -345.41902570 Eh
Thermal Enthalpy correction       ...      0.00094421 Eh       0.59 kcal/mol
-----------------------------------------------------------------------
Total Enthalpy                    ...   -345.41808149 Eh

Note: Only C1 symmetry has been detected, increase convergence thresholds
      if your molecule has a higher symmetry. Symmetry factor of 1.0 is
      used for the rotational entropy correction.

Note: Rotational entropy computed according to Herzberg
Infrared and Raman Spectra, Chapter V,1, Van Nostrand Reinhold, 1945
Point Group:  C1, Symmetry Number:   1
Rotational constants in cm-1:     0.148016     0.073816     0.067503

Vibrational entropy computed according to the QRRHO of S. Grimme
Chem.Eur.J. 2012 18 9955

-------
ENTROPY
-------

The entropy contributions are T*S = T*(S(el)+S(vib)+S(rot)+S(trans))
     S(el)   - electronic entropy
     S(vib)  - vibrational entropy
     S(rot)  - rotational entropy
     S(trans)- translational entropy
The entropies will be listed as multiplied by the temperature to get
units of energy

Electronic entropy                ...      0.00065446 Eh      0.41 kcal/mol
Vibrational entropy               ...      0.00669612 Eh      4.20 kcal/mol
Rotational entropy                ...      0.01291562 Eh      8.10 kcal/mol
Translational entropy             ...      0.01888709 Eh     11.85 kcal/mol
-----------------------------------------------------------------------
Final entropy term                ...      0.03915328 Eh     24.57 kcal/mol

In case the symmetry of your molecule has not been determined correctly
or in case you have a reason to use a different symmetry number we print
out the resulting rotational entropy values for sn=1,12 :
 --------------------------------------------------------
|  sn= 1 | S(rot)=       0.01291562 Eh      8.10 kcal/mol|
|  sn= 2 | S(rot)=       0.01226117 Eh      7.69 kcal/mol|
|  sn= 3 | S(rot)=       0.01187833 Eh      7.45 kcal/mol|
|  sn= 4 | S(rot)=       0.01160671 Eh      7.28 kcal/mol|
|  sn= 5 | S(rot)=       0.01139602 Eh      7.15 kcal/mol|
|  sn= 6 | S(rot)=       0.01122388 Eh      7.04 kcal/mol|
|  sn= 7 | S(rot)=       0.01107833 Eh      6.95 kcal/mol|
|  sn= 8 | S(rot)=       0.01095225 Eh      6.87 kcal/mol|
|  sn= 9 | S(rot)=       0.01084104 Eh      6.80 kcal/mol|
|  sn=10 | S(rot)=       0.01074156 Eh      6.74 kcal/mol|
|  sn=11 | S(rot)=       0.01065157 Eh      6.68 kcal/mol|
|  sn=12 | S(rot)=       0.01056942 Eh      6.63 kcal/mol|
 --------------------------------------------------------

-------------------
GIBBS FREE ENERGY
-------------------

The Gibbs free energy is G = H - T*S

Total enthalpy                    ...   -345.41808149 Eh

                             ****ORCA TERMINATED NORMALLY****
TOTAL RUN TIME: 0 days 0 hours 1 minutes 6 seconds 235 msec
