                         Program Version 5.0.4 -  RELEASE  -
|  1> ! EnGrad PBE0 RIJCOSX D3BJ def2-SVP def2/J
|  2> %output
|  3> xyzfile=True
|  4> end
|  5> %scf
|  6> maxiter 250
|  7> end
|  8> %output
|  9> Print[P_Hirshfeld] = 1
| 10> end
| 11> % maxcore
| 12> 4000
| 13> *xyz 0 2
| 14> O   -2.56120259  -0.47957830   0.73950613
| 15> O   -1.29127225   0.18920355   1.15705476
| 16> C   -0.62158252   0.48782201  -0.04587857
| 17> C    0.57631569   1.29712464   0.35523007
| 18> C    1.73731029   0.58602309   0.08285777
| 19> C    1.44564151  -0.62441164  -0.53169045
| 20> C   -0.02893212  -0.75807038  -0.73321472
| 21> H   -2.62859261  -1.11440053   1.46419016
| 22> H   -1.31782289   1.04277785  -0.70174327
| 23> H    0.50417039   2.27108126   0.83909351
| 24> H    2.74496441   0.93697144   0.31493072
| 25> H    2.17914289  -1.36605143  -0.85148604
| 26> H   -0.28577441  -0.79827674  -1.80609786
| 27> H   -0.45236936  -1.67011839  -0.28275434
| 28> *
| 29>
| 30>                          ****END OF INPUT****

CARTESIAN COORDINATES (ANGSTROEM)
---------------------------------
  O     -2.561203   -0.479578    0.739506
  O     -1.291272    0.189204    1.157055
  C     -0.621583    0.487822   -0.045879
  C      0.576316    1.297125    0.355230
  C      1.737310    0.586023    0.082858
  C      1.445642   -0.624412   -0.531690
  C     -0.028932   -0.758070   -0.733215
  H     -2.628593   -1.114401    1.464190
  H     -1.317823    1.042778   -0.701743
  H      0.504170    2.271081    0.839094
  H      2.744964    0.936971    0.314931
  H      2.179143   -1.366051   -0.851486
  H     -0.285774   -0.798277   -1.806098
  H     -0.452369   -1.670118   -0.282754

 Total Charge           Charge          ....    0
 Multiplicity           Mult            ....    2
 Number of Electrons    NEL             ....   53
 Basis Dimension        Dim             ....  133

ORBITAL ENERGIES
----------------
                 SPIN UP ORBITALS
  NO   OCC          E(Eh)            E(eV)
   0   1.0000     -19.261159      -524.1228
   1   1.0000     -19.255008      -523.9554
   2   1.0000     -10.284982      -279.8686
   3   1.0000     -10.246712      -278.8272
   4   1.0000     -10.243971      -278.7526
   5   1.0000     -10.239930      -278.6427
   6   1.0000     -10.234674      -278.4996
   7   1.0000      -1.118739       -30.4424
   8   1.0000      -0.940828       -25.6012
   9   1.0000      -0.863295       -23.4915
  10   1.0000      -0.733124       -19.9493
  11   1.0000      -0.708218       -19.2716
  12   1.0000      -0.584083       -15.8937
  13   1.0000      -0.562251       -15.2996
  14   1.0000      -0.539935       -14.6924
  15   1.0000      -0.525023       -14.2866
  16   1.0000      -0.485726       -13.2173
  17   1.0000      -0.447103       -12.1663
  18   1.0000      -0.412678       -11.2295
  19   1.0000      -0.403522       -10.9804
  20   1.0000      -0.395028       -10.7493
  21   1.0000      -0.387385       -10.5413
  22   1.0000      -0.358539        -9.7563
  23   1.0000      -0.341501        -9.2927
  24   1.0000      -0.325087        -8.8461
  25   1.0000      -0.262737        -7.1494
  26   1.0000      -0.200953        -5.4682
  27   0.0000       0.009096         0.2475
  28   0.0000       0.049670         1.3516
  29   0.0000       0.076696         2.0870
  30   0.0000       0.092821         2.5258
  31   0.0000       0.112735         3.0677

                 SPIN DOWN ORBITALS
  NO   OCC          E(Eh)            E(eV)
   0   1.0000     -19.260281      -524.0989
   1   1.0000     -19.254600      -523.9443
   2   1.0000     -10.285641      -279.8865
   3   1.0000     -10.244068      -278.7553
   4   1.0000     -10.236468      -278.5485
   5   1.0000     -10.235322      -278.5173
   6   1.0000     -10.233930      -278.4794
   7   1.0000      -1.117073       -30.3971
   8   1.0000      -0.937796       -25.5187
   9   1.0000      -0.854044       -23.2397
  10   1.0000      -0.726657       -19.7733
  11   1.0000      -0.694249       -18.8915
  12   1.0000      -0.575664       -15.6646
  13   1.0000      -0.557793       -15.1783
  14   1.0000      -0.532247       -14.4832
  15   1.0000      -0.522978       -14.2310
  16   1.0000      -0.482116       -13.1190
  17   1.0000      -0.443470       -12.0674
  18   1.0000      -0.405277       -11.0282
  19   1.0000      -0.397511       -10.8168
  20   1.0000      -0.391861       -10.6631
  21   1.0000      -0.382808       -10.4167
  22   1.0000      -0.355253        -9.6669
  23   1.0000      -0.337310        -9.1787
  24   1.0000      -0.300702        -8.1825
  25   1.0000      -0.261812        -7.1243
  26   0.0000      -0.064833        -1.7642
  27   0.0000       0.017156         0.4668
  28   0.0000       0.066589         1.8120
  29   0.0000       0.081598         2.2204
  30   0.0000       0.094927         2.5831

MULLIKEN ATOMIC CHARGES AND SPIN POPULATIONS
--------------------------------------------
   0 O :   -0.176687    0.014806
   1 O :   -0.271462    0.010137
   2 C :    0.123152   -0.048251
   3 C :   -0.062426    0.699731
   4 C :   -0.000928   -0.322733
   5 C :   -0.111282    0.703968
   6 C :    0.053206   -0.063602
   7 H :    0.191603   -0.000446
   8 H :    0.044037    0.018618
   9 H :    0.041729   -0.033870
  10 H :    0.029689    0.011083
  11 H :    0.035425   -0.034901
  12 H :    0.057362    0.026111
  13 H :    0.046583    0.019348
Sum of atomic charges         :   -0.0000000

LOEWDIN ATOMIC CHARGES AND SPIN POPULATIONS
-------------------------------------------
   0 O :   -0.071650    0.012394
   1 O :   -0.092772    0.017995
   2 C :    0.040171   -0.000288
   3 C :   -0.028080    0.545980
   4 C :   -0.042085   -0.173211
   5 C :   -0.014262    0.555415
   6 C :   -0.055959   -0.009841
   7 H :    0.073326    0.000226
   8 H :    0.021349    0.016166
   9 H :    0.028982   -0.001555
  10 H :    0.034089    0.000399
  11 H :    0.025105   -0.001472
  12 H :    0.042190    0.022025
  13 H :    0.039596    0.015767

  Mayer bond orders larger than 0.100000
B(  0-O ,  1-O ) :   0.9301 B(  0-O ,  7-H ) :   0.9728 B(  1-O ,  2-C ) :   0.9269
B(  2-C ,  3-C ) :   1.0221 B(  2-C ,  6-C ) :   1.0325 B(  2-C ,  8-H ) :   0.9239
B(  3-C ,  4-C ) :   1.3925 B(  3-C ,  5-C ) :   0.1265 B(  3-C ,  9-H ) :   0.9884
B(  4-C ,  5-C ) :   1.4144 B(  4-C , 10-H ) :   0.9955 B(  5-C ,  6-C ) :   1.0297
B(  5-C , 11-H ) :   0.9863 B(  6-C , 12-H ) :   0.9249 B(  6-C , 13-H ) :   0.9195

Dispersion correction           -0.009940349
FINAL SINGLE POINT ENERGY      -344.394864287489
Dispersion correction            ... done

DIPOLE MOMENT
-------------
                                X             Y             Z
Electronic contribution:     -1.88512       0.70960       2.09240
Nuclear contribution   :      2.20807      -1.09336      -2.18580
                        -----------------------------------------
Total Dipole Moment    :      0.32295      -0.38376      -0.09340
                        -----------------------------------------
Magnitude (a.u.)       :      0.51019
Magnitude (Debye)      :      1.29681

Rotational constants in cm-1:     0.205219     0.066841     0.055273
Rotational constants in MHz :  6152.308449  2003.857641  1657.042742

                             ****ORCA TERMINATED NORMALLY****
TOTAL RUN TIME: 0 days 0 hours 0 minutes 53 seconds 632 msec
