                         Program Version 5.0.4 -  RELEASE  -
|  1> ! EnGrad PBE0 RIJCOSX D3BJ def2-SVP def2/J
|  2> %output
|  3> xyzfile=True
|  4> end
|  5> %scf
|  6> maxiter 250
|  7> end
|  8> %output
|  9> Print[P_Hirshfeld] = 1
| 10> end
| 11> % maxcore
| 12> 4000
| 13> *xyz 0 2
| 14> O   -2.49948223  -0.45379054   0.75884508
| 15> O   -1.35417537   0.15253960   1.13882725
| 16> C   -0.62114741   0.48971896  -0.04662022
| 17> C    0.57704108   1.29957841   0.35185874
| 18> C    1.73908365   0.58678689   0.08463086
| 19> C    1.44977293  -0.62670291  -0.53159860
| 20> C   -0.02962330  -0.75897033  -0.73746077
| 21> H   -2.63086357  -1.10997054   1.47633084
| 22> H   -1.32023413   1.04282562  -0.70113235
| 23> H    0.50354580   2.27247865   0.83622378
| 24> H    2.74491955   0.93563322   0.31802464
| 25> H    2.17942085  -1.36791753  -0.84772215
| 26> H   -0.28252183  -0.79313888  -1.81081043
| 27> H   -0.45596825  -1.66911664  -0.29000478
| 28> *
| 29>
| 30>                          ****END OF INPUT****

CARTESIAN COORDINATES (ANGSTROEM)
---------------------------------
  O     -2.499482   -0.453791    0.758845
  O     -1.354175    0.152540    1.138827
  C     -0.621147    0.489719   -0.046620
  C      0.577041    1.299578    0.351859
  C      1.739084    0.586787    0.084631
  C      1.449773   -0.626703   -0.531599
  C     -0.029623   -0.758970   -0.737461
  H     -2.630864   -1.109971    1.476331
  H     -1.320234    1.042826   -0.701132
  H      0.503546    2.272479    0.836224
  H      2.744920    0.935633    0.318025
  H      2.179421   -1.367918   -0.847722
  H     -0.282522   -0.793139   -1.810810
  H     -0.455968   -1.669117   -0.290005

 Total Charge           Charge          ....    0
 Multiplicity           Mult            ....    2
 Number of Electrons    NEL             ....   53
 Basis Dimension        Dim             ....  133

ORBITAL ENERGIES
----------------
                 SPIN UP ORBITALS
  NO   OCC          E(Eh)            E(eV)
   0   1.0000     -19.251174      -523.8511
   1   1.0000     -19.249047      -523.7932
   2   1.0000     -10.284110      -279.8449
   3   1.0000     -10.245773      -278.8016
   4   1.0000     -10.242480      -278.7121
   5   1.0000     -10.239090      -278.6198
   6   1.0000     -10.234593      -278.4974
   7   1.0000      -1.174090       -31.9486
   8   1.0000      -0.920473       -25.0473
   9   1.0000      -0.855503       -23.2794
  10   1.0000      -0.731413       -19.9028
  11   1.0000      -0.709151       -19.2970
  12   1.0000      -0.588146       -16.0043
  13   1.0000      -0.565802       -15.3963
  14   1.0000      -0.548569       -14.9273
  15   1.0000      -0.532692       -14.4953
  16   1.0000      -0.491771       -13.3818
  17   1.0000      -0.456996       -12.4355
  18   1.0000      -0.419454       -11.4139
  19   1.0000      -0.403807       -10.9881
  20   1.0000      -0.389544       -10.6000
  21   1.0000      -0.385361       -10.4862
  22   1.0000      -0.362643        -9.8680
  23   1.0000      -0.333476        -9.0743
  24   1.0000      -0.321164        -8.7393
  25   1.0000      -0.240564        -6.5461
  26   1.0000      -0.200176        -5.4471
  27   0.0000       0.030556         0.8315
  28   0.0000       0.067163         1.8276
  29   0.0000       0.087263         2.3745
  30   0.0000       0.109340         2.9753
  31   0.0000       0.123267         3.3543

                 SPIN DOWN ORBITALS
  NO   OCC          E(Eh)            E(eV)
   0   1.0000     -19.251039      -523.8474
   1   1.0000     -19.248038      -523.7658
   2   1.0000     -10.284788      -279.8633
   3   1.0000     -10.243281      -278.7338
   4   1.0000     -10.235458      -278.5210
   5   1.0000     -10.235226      -278.5147
   6   1.0000     -10.232386      -278.4374
   7   1.0000      -1.172840       -31.9146
   8   1.0000      -0.916521       -24.9398
   9   1.0000      -0.847120       -23.0513
  10   1.0000      -0.725261       -19.7353
  11   1.0000      -0.695248       -18.9187
  12   1.0000      -0.579430       -15.7671
  13   1.0000      -0.562856       -15.3161
  14   1.0000      -0.542510       -14.7624
  15   1.0000      -0.527983       -14.3672
  16   1.0000      -0.488222       -13.2852
  17   1.0000      -0.454159       -12.3583
  18   1.0000      -0.410888       -11.1808
  19   1.0000      -0.398305       -10.8384
  20   1.0000      -0.386708       -10.5229
  21   1.0000      -0.379406       -10.3242
  22   1.0000      -0.360263        -9.8032
  23   1.0000      -0.326698        -8.8899
  24   1.0000      -0.299014        -8.1366
  25   1.0000      -0.239772        -6.5245
  26   0.0000      -0.061833        -1.6826
  27   0.0000       0.049147         1.3374
  28   0.0000       0.068732         1.8703
  29   0.0000       0.090762         2.4698
  30   0.0000       0.114243         3.1087

MULLIKEN ATOMIC CHARGES AND SPIN POPULATIONS
--------------------------------------------
   0 O :   -0.157725    0.005362
   1 O :   -0.285818    0.015742
   2 C :    0.128092   -0.048401
   3 C :   -0.057498    0.702620
   4 C :   -0.003683   -0.326917
   5 C :   -0.106507    0.711145
   6 C :    0.040659   -0.063863
   7 H :    0.196647   -0.000096
   8 H :    0.040225    0.017988
   9 H :    0.039460   -0.034005
  10 H :    0.028585    0.011241
  11 H :    0.033473   -0.035091
  12 H :    0.057620    0.025556
  13 H :    0.046471    0.018719
Sum of atomic charges         :   -0.0000000

LOEWDIN ATOMIC CHARGES AND SPIN POPULATIONS
-------------------------------------------
   0 O :   -0.066548    0.004004
   1 O :   -0.111962    0.022244
   2 C :    0.049497   -0.000608
   3 C :   -0.028946    0.548815
   4 C :   -0.041414   -0.176026
   5 C :   -0.014770    0.561178
   6 C :   -0.055705   -0.010122
   7 H :    0.085133    0.000216
   8 H :    0.019407    0.015775
   9 H :    0.028349   -0.001577
  10 H :    0.033318    0.000358
  11 H :    0.023824   -0.001128
  12 H :    0.041506    0.021578
  13 H :    0.038312    0.015292

  Mayer bond orders larger than 0.100000
B(  0-O ,  1-O ) :   0.9190 B(  0-O ,  7-H ) :   0.9669 B(  1-O ,  2-C ) :   0.9102
B(  2-C ,  3-C ) :   1.0314 B(  2-C ,  6-C ) :   1.0329 B(  2-C ,  8-H ) :   0.9263
B(  3-C ,  4-C ) :   1.3985 B(  3-C ,  5-C ) :   0.1266 B(  3-C ,  9-H ) :   0.9884
B(  4-C ,  5-C ) :   1.4100 B(  4-C , 10-H ) :   0.9958 B(  5-C ,  6-C ) :   1.0305
B(  5-C , 11-H ) :   0.9874 B(  6-C , 12-H ) :   0.9255 B(  6-C , 13-H ) :   0.9219

Dispersion correction           -0.009941164
FINAL SINGLE POINT ENERGY      -344.392357284255
Dispersion correction            ... done

DIPOLE MOMENT
-------------
                                X             Y             Z
Electronic contribution:     -1.94082       0.67272       2.11153
Nuclear contribution   :      2.19949      -1.07581      -2.17762
                        -----------------------------------------
Total Dipole Moment    :      0.25867      -0.40309      -0.06609
                        -----------------------------------------
Magnitude (a.u.)       :      0.48349
Magnitude (Debye)      :      1.22892

Rotational constants in cm-1:     0.207602     0.067291     0.055734
Rotational constants in MHz :  6223.761698  2017.323325  1670.871790

                             ****ORCA TERMINATED NORMALLY****
TOTAL RUN TIME: 0 days 0 hours 0 minutes 57 seconds 400 msec
