                         Program Version 5.0.4 -  RELEASE  -
|  1> ! EnGrad PBE0 RIJCOSX D3BJ def2-SVP def2/J
|  2> %output
|  3> xyzfile=True
|  4> end
|  5> %scf
|  6> maxiter 250
|  7> end
|  8> %output
|  9> Print[P_Hirshfeld] = 1
| 10> end
| 11> % maxcore
| 12> 4000
| 13> *xyz 0 2
| 14> O   -2.51522333  -0.46484474   0.75701082
| 15> O   -1.33666845   0.16239289   1.14278453
| 16> C   -0.62293735   0.48798765  -0.04530760
| 17> C    0.57616036   1.29869727   0.35248468
| 18> C    1.73845984   0.58629972   0.08418159
| 19> C    1.44874613  -0.62579376  -0.53117682
| 20> C   -0.02886999  -0.75812637  -0.73734610
| 21> H   -2.63011388  -1.10697985   1.47273921
| 22> H   -1.32012381   1.04290253  -0.70135960
| 23> H    0.50362643   2.27267840   0.83624410
| 24> H    2.74535971   0.93583128   0.31815067
| 25> H    2.18009506  -1.36850024  -0.84790522
| 26> H   -0.28254144  -0.79315528  -1.81106005
| 27> H   -0.45622431  -1.66944677  -0.29005702
| 28> *
| 29>
| 30>                          ****END OF INPUT****

CARTESIAN COORDINATES (ANGSTROEM)
---------------------------------
  O     -2.515223   -0.464845    0.757011
  O     -1.336668    0.162393    1.142785
  C     -0.622937    0.487988   -0.045308
  C      0.576160    1.298697    0.352485
  C      1.738460    0.586300    0.084182
  C      1.448746   -0.625794   -0.531177
  C     -0.028870   -0.758126   -0.737346
  H     -2.630114   -1.106980    1.472739
  H     -1.320124    1.042903   -0.701360
  H      0.503626    2.272678    0.836244
  H      2.745360    0.935831    0.318151
  H      2.180095   -1.368500   -0.847905
  H     -0.282541   -0.793155   -1.811060
  H     -0.456224   -1.669447   -0.290057

 Total Charge           Charge          ....    0
 Multiplicity           Mult            ....    2
 Number of Electrons    NEL             ....   53
 Basis Dimension        Dim             ....  133

ORBITAL ENERGIES
----------------
                 SPIN UP ORBITALS
  NO   OCC          E(Eh)            E(eV)
   0   1.0000     -19.252995      -523.9006
   1   1.0000     -19.252242      -523.8801
   2   1.0000     -10.284501      -279.8555
   3   1.0000     -10.245928      -278.8059
   4   1.0000     -10.242846      -278.7220
   5   1.0000     -10.239229      -278.6236
   6   1.0000     -10.234601      -278.4977
   7   1.0000      -1.157551       -31.4986
   8   1.0000      -0.927842       -25.2479
   9   1.0000      -0.858648       -23.3650
  10   1.0000      -0.731604       -19.9080
  11   1.0000      -0.708978       -19.2923
  12   1.0000      -0.586908       -15.9706
  13   1.0000      -0.564768       -15.3681
  14   1.0000      -0.546110       -14.8604
  15   1.0000      -0.531650       -14.4669
  16   1.0000      -0.490133       -13.3372
  17   1.0000      -0.453878       -12.3506
  18   1.0000      -0.417185       -11.3522
  19   1.0000      -0.403660       -10.9842
  20   1.0000      -0.390876       -10.6363
  21   1.0000      -0.385864       -10.4999
  22   1.0000      -0.361271        -9.8307
  23   1.0000      -0.336387        -9.1535
  24   1.0000      -0.323248        -8.7960
  25   1.0000      -0.247977        -6.7478
  26   1.0000      -0.200305        -5.4506
  27   0.0000       0.028953         0.7879
  28   0.0000       0.067693         1.8420
  29   0.0000       0.085760         2.3336
  30   0.0000       0.106024         2.8851
  31   0.0000       0.122919         3.3448

                 SPIN DOWN ORBITALS
  NO   OCC          E(Eh)            E(eV)
   0   1.0000     -19.252065      -523.8753
   1   1.0000     -19.252024      -523.8742
   2   1.0000     -10.285172      -279.8738
   3   1.0000     -10.243410      -278.7373
   4   1.0000     -10.235639      -278.5259
   5   1.0000     -10.235244      -278.5151
   6   1.0000     -10.232730      -278.4468
   7   1.0000      -1.156236       -31.4628
   8   1.0000      -0.924355       -25.1530
   9   1.0000      -0.849855       -23.1257
  10   1.0000      -0.725390       -19.7389
  11   1.0000      -0.695027       -18.9126
  12   1.0000      -0.578233       -15.7345
  13   1.0000      -0.561508       -15.2794
  14   1.0000      -0.539646       -14.6845
  15   1.0000      -0.527608       -14.3569
  16   1.0000      -0.486554       -13.2398
  17   1.0000      -0.450808       -12.2671
  18   1.0000      -0.408885       -11.1263
  19   1.0000      -0.398115       -10.8333
  20   1.0000      -0.387802       -10.5526
  21   1.0000      -0.380428       -10.3520
  22   1.0000      -0.358763        -9.7624
  23   1.0000      -0.331290        -9.0148
  24   1.0000      -0.299450        -8.1484
  25   1.0000      -0.247162        -6.7256
  26   0.0000      -0.062222        -1.6932
  27   0.0000       0.045925         1.2497
  28   0.0000       0.070144         1.9087
  29   0.0000       0.090294         2.4570
  30   0.0000       0.111953         3.0464

MULLIKEN ATOMIC CHARGES AND SPIN POPULATIONS
--------------------------------------------
   0 O :   -0.158529    0.006909
   1 O :   -0.281036    0.014172
   2 C :    0.127211   -0.048297
   3 C :   -0.059636    0.704217
   4 C :   -0.003210   -0.326097
   5 C :   -0.107966    0.708321
   6 C :    0.042620   -0.063764
   7 H :    0.191337   -0.000186
   8 H :    0.041115    0.018050
   9 H :    0.040166   -0.034098
  10 H :    0.029198    0.011228
  11 H :    0.034482   -0.035056
  12 H :    0.057654    0.025730
  13 H :    0.046596    0.018872
Sum of atomic charges         :   -0.0000000

LOEWDIN ATOMIC CHARGES AND SPIN POPULATIONS
-------------------------------------------
   0 O :   -0.062921    0.005340
   1 O :   -0.104797    0.021005
   2 C :    0.045990   -0.000455
   3 C :   -0.028875    0.550105
   4 C :   -0.041949   -0.175410
   5 C :   -0.015207    0.558870
   6 C :   -0.056077   -0.010060
   7 H :    0.076864    0.000204
   8 H :    0.019888    0.015832
   9 H :    0.028476   -0.001612
  10 H :    0.033704    0.000398
  11 H :    0.024479   -0.001336
  12 H :    0.041727    0.021710
  13 H :    0.038696    0.015406

  Mayer bond orders larger than 0.100000
B(  0-O ,  1-O ) :   0.9246 B(  0-O ,  7-H ) :   0.9719 B(  1-O ,  2-C ) :   0.9163
B(  2-C ,  3-C ) :   1.0288 B(  2-C ,  6-C ) :   1.0325 B(  2-C ,  8-H ) :   0.9256
B(  3-C ,  4-C ) :   1.3962 B(  3-C ,  5-C ) :   0.1268 B(  3-C ,  9-H ) :   0.9882
B(  4-C ,  5-C ) :   1.4124 B(  4-C , 10-H ) :   0.9956 B(  5-C ,  6-C ) :   1.0303
B(  5-C , 11-H ) :   0.9868 B(  6-C , 12-H ) :   0.9254 B(  6-C , 13-H ) :   0.9215

Dispersion correction           -0.009939832
FINAL SINGLE POINT ENERGY      -344.395690140421
Dispersion correction            ... done

DIPOLE MOMENT
-------------
                                X             Y             Z
Electronic contribution:     -1.93252       0.67489       2.11486
Nuclear contribution   :      2.20204      -1.07126      -2.18509
                        -----------------------------------------
Total Dipole Moment    :      0.26953      -0.39637      -0.07023
                        -----------------------------------------
Magnitude (a.u.)       :      0.48444
Magnitude (Debye)      :      1.23135

Rotational constants in cm-1:     0.207026     0.067173     0.055617
Rotational constants in MHz :  6206.497654  2013.790046  1667.341758

                             ****ORCA TERMINATED NORMALLY****
TOTAL RUN TIME: 0 days 0 hours 0 minutes 57 seconds 433 msec
