   * xtb version 6.6.1 (8d0f1dd) compiled by 'conda@1efc2f54142f' on 2023-08-01
          program call               : /gpfs/fs1/home/copan/code/autode-practice/.pixi/envs/default/bin/xtb p0_C6H10_conf1_opt_xtb.xyz --chrg 0 --uhf 0 --opt

   ID    Z sym.   atoms
    1    6 C      1-6
    2    1 H      7-16

          :  Hamiltonian                  GFN2-xTB          :
 * total energy  :   -17.9177775 Eh     change       -0.7865708E-11 Eh
 * total energy  :   -17.9272604 Eh     change       -0.9482925E-02 Eh
 * total energy  :   -17.9294403 Eh     change       -0.2179875E-02 Eh
 * total energy  :   -17.9304935 Eh     change       -0.1053289E-02 Eh
 * total energy  :   -17.9309081 Eh     change       -0.4145126E-03 Eh
 * total energy  :   -17.9311180 Eh     change       -0.2099863E-03 Eh
 * total energy  :   -17.9312354 Eh     change       -0.1174027E-03 Eh
 * total energy  :   -17.9313141 Eh     change       -0.7864617E-04 Eh
 * total energy  :   -17.9313757 Eh     change       -0.6158967E-04 Eh
 * total energy  :   -17.9314165 Eh     change       -0.4085422E-04 Eh
 * total energy  :   -17.9314347 Eh     change       -0.1817012E-04 Eh
 * total energy  :   -17.9314371 Eh     change       -0.2424897E-05 Eh
   *** GEOMETRY OPTIMIZATION CONVERGED AFTER 12 ITERATIONS ***

 final structure:
================
16
 xtb: 6.6.1 (8d0f1dd)
C            0.24795576361053        1.48537643061274       -0.31436320887713
C           -1.01042935110173        1.15711684064016       -0.07547827610546
C           -1.45463519104703       -0.23520834221728        0.25287935211689
C           -0.27222451135164       -1.11474711947474        0.65086608718840
C            0.86364684209862       -0.93402206873120       -0.35005565182818
C            1.37774053652266        0.50203512599233       -0.29070600580265
H            0.51554242677926        2.51054355652161       -0.53443581138630
H           -1.79095103660986        1.90506083396356       -0.12087864997166
H           -2.19148958188687       -0.20273485638217        1.05991182461006
H           -1.95756115854435       -0.66172288761135       -0.62174513442070
H            0.07677055393276       -0.82356823617830        1.64360890481666
H           -0.58102080046890       -2.16110949313715        0.69510673126523
H            1.67612338366185       -1.63156936391181       -0.13705959550699
H            0.49201396480241       -1.14493632220276       -1.35526204313526
H            1.95765367434188        0.65177062377191        0.62674648630849
H            2.05096448526055        0.69801527834449       -1.12913500927134

          :  Hamiltonian                  GFN2-xTB          :
         :: total energy             -17.931437128491 Eh    ::
         :: gradient norm              0.000638214091 Eh/a0 ::
         :: HOMO-LUMO gap              5.233543576952 eV    ::
         :: SCC energy               -18.224931930974 Eh    ::
         :: -> dispersion             -0.010086391358 Eh    ::
         :: repulsion energy           0.293474700188 Eh    ::

    * Orbital Energies and Occupations

         #    Occupation            Energy/Eh            Energy/eV
      -------------------------------------------------------------
         1        2.0000           -0.6302648             -17.1504
       ...           ...                  ...                  ...
         5        2.0000           -0.5639129             -15.3449
         6        2.0000           -0.5292736             -14.4023
         7        2.0000           -0.5214682             -14.1899
         8        2.0000           -0.4938921             -13.4395
         9        2.0000           -0.4910203             -13.3613
        10        2.0000           -0.4719925             -12.8436
        11        2.0000           -0.4659513             -12.6792
        12        2.0000           -0.4638040             -12.6207
        13        2.0000           -0.4592921             -12.4980
        14        2.0000           -0.4268932             -11.6164
        15        2.0000           -0.4165930             -11.3361
        16        2.0000           -0.4073445             -11.0844
        17        2.0000           -0.3806969             -10.3593 (HOMO)
        18                         -0.1883677              -5.1257 (LUMO)
        19                          0.0983851               2.6772
        20                          0.1024381               2.7875
        21                          0.1096333               2.9833
        22                          0.1235011               3.3606
        23                          0.1262556               3.4356
        24                          0.1470441               4.0013
        25                          0.1564749               4.2579
        26                          0.1927459               5.2449
        27                          0.1974857               5.3739
        28                          0.2364747               6.4348
       ...                                ...                  ...
        34                          0.6417713              17.4635
      -------------------------------------------------------------
                  HL-Gap            0.1923292 Eh            5.2335 eV

     #   Z          covCN         q      C6AA      α(0)
     1   6 C        2.892    -0.041    29.019     8.832
     2   6 C        2.892    -0.041    29.019     8.832
     3   6 C        3.809    -0.053    21.519     6.603
     4   6 C        3.807    -0.054    21.537     6.606
     5   6 C        3.807    -0.054    21.536     6.606
     6   6 C        3.809    -0.053    21.519     6.603
     7   1 H        0.925     0.021     2.724     2.581
     8   1 H        0.925     0.021     2.724     2.581
     9   1 H        0.924     0.033     2.548     2.496
    10   1 H        0.924     0.037     2.489     2.467
    11   1 H        0.924     0.033     2.550     2.497
    12   1 H        0.924     0.025     2.658     2.549
    13   1 H        0.924     0.025     2.657     2.549
    14   1 H        0.924     0.032     2.551     2.498
    15   1 H        0.924     0.037     2.490     2.467
    16   1 H        0.924     0.033     2.548     2.496

Wiberg/Mayer (AO) data.
largest (>0.10) Wiberg bond orders for each atom

     #   Z sym  total        # sym  WBO       # sym  WBO       # sym  WBO
 ---------------------------------------------------------------------------
     1   6 C    3.991 --     2 C    1.929     6 C    1.024     7 H    0.968
     2   6 C    3.991 --     1 C    1.929     3 C    1.024     8 H    0.968
     3   6 C    3.999 --     2 C    1.024     4 C    1.007     9 H    0.968
                            10 H    0.959
     4   6 C    3.999 --     5 C    1.009     3 C    1.007    12 H    0.979
                            11 H    0.979
     5   6 C    3.999 --     4 C    1.009     6 C    1.007    13 H    0.979
                            14 H    0.979
     6   6 C    3.999 --     1 C    1.024     5 C    1.007    16 H    0.968
                            15 H    0.959
     7   1 H    1.000 --     1 C    0.968
     8   1 H    1.000 --     2 C    0.968
     9   1 H    0.999 --     3 C    0.968
    10   1 H    0.999 --     3 C    0.959
    11   1 H    0.999 --     4 C    0.979
    12   1 H    0.999 --     4 C    0.979
    13   1 H    0.999 --     5 C    0.979
    14   1 H    0.999 --     5 C    0.979
    15   1 H    0.999 --     6 C    0.959
    16   1 H    0.999 --     6 C    0.968
 ---------------------------------------------------------------------------

molecular dipole:
                 x           y           z       tot (Debye)
 q only:        0.035      -0.122       0.018
   full:        0.036      -0.124       0.018       0.331

           -------------------------------------------------
          | TOTAL ENERGY              -17.931437128491 Eh   |
          | GRADIENT NORM               0.000638214091 Eh/α |
          | HOMO-LUMO GAP               5.233543576952 eV   |
           -------------------------------------------------

 * finished run on 2025/05/23 at 11:04:01.685
