                         Program Version 5.0.4 -  RELEASE  -
|  1> ! LooseOpt PBE0 RIJCOSX D3BJ def2-SVP def2/J
|  2> %geom MaxIter 10 end
|  3> %output
|  4> xyzfile=True
|  5> end
|  6> %scf
|  7> maxiter 250
|  8> end
|  9> %output
| 10> Print[P_Hirshfeld] = 1
| 11> end
| 12> % maxcore
| 13> 4000
| 14> %pal nprocs 8
| 15> end
| 16> *xyz 0 1
| 17> C    0.24795576   1.48537643  -0.31436321
| 18> C   -1.01042935   1.15711684  -0.07547828
| 19> C   -1.45463519  -0.23520834   0.25287935
| 20> C   -0.27222451  -1.11474712   0.65086609
| 21> C    0.86364684  -0.93402207  -0.35005565
| 22> C    1.37774054   0.50203513  -0.29070601
| 23> H    0.51554243   2.51054356  -0.53443581
| 24> H   -1.79095104   1.90506083  -0.12087865
| 25> H   -2.19148958  -0.20273486   1.05991182
| 26> H   -1.95756116  -0.66172289  -0.62174513
| 27> H    0.07677055  -0.82356824   1.64360890
| 28> H   -0.58102080  -2.16110949   0.69510673
| 29> H    1.67612338  -1.63156936  -0.13705960
| 30> H    0.49201396  -1.14493632  -1.35526204
| 31> H    1.95765367   0.65177062   0.62674649
| 32> H    2.05096449   0.69801528  -1.12913501
| 33> *
| 34>
| 35>                          ****END OF INPUT****
 Total Charge           Charge          ....    0
 Multiplicity           Mult            ....    1
 Number of Electrons    NEL             ....   46
Dispersion correction           -0.011977752
FINAL SINGLE POINT ENERGY      -234.205202253354
Dispersion correction            ... done
Dispersion correction           -0.011908825
FINAL SINGLE POINT ENERGY      -234.206676293599
Dispersion correction            ... done
Dispersion correction           -0.011890574
FINAL SINGLE POINT ENERGY      -234.206861634878
Dispersion correction            ... done
Dispersion correction           -0.011880771
FINAL SINGLE POINT ENERGY      -234.206935744360
Dispersion correction            ... done
                    ***********************HURRAY********************

CARTESIAN COORDINATES (ANGSTROEM)
---------------------------------
  C      0.253425    1.496892   -0.314029
  C     -1.021230    1.163597   -0.078775
  C     -1.459586   -0.231121    0.259815
  C     -0.283757   -1.127599    0.635170
  C      0.879083   -0.934347   -0.330875
  C      1.380239    0.505910   -0.300387
  H      0.502930    2.541300   -0.531255
  H     -1.795407    1.937125   -0.129638
  H     -2.197869   -0.200212    1.079391
  H     -2.005413   -0.659821   -0.602776
  H      0.052610   -0.873945    1.656374
  H     -0.599813   -2.182352    0.664362
  H      1.700684   -1.631437   -0.102124
  H      0.538909   -1.176689   -1.353563
  H      2.000836    0.674802    0.600859
  H      2.054460    0.698197   -1.152550

 Multiplicity           Mult            ....    1
 Number of Electrons    NEL             ....   46
 Basis Dimension        Dim             ....  134

ORBITAL ENERGIES
----------------

  NO   OCC          E(Eh)            E(eV)
   0   2.0000     -10.229351      -278.3548
   1   2.0000     -10.229321      -278.3540
   2   2.0000     -10.226151      -278.2677
   3   2.0000     -10.226015      -278.2640
   4   2.0000     -10.225033      -278.2373
   5   2.0000     -10.224258      -278.2162
   6   2.0000      -0.849897       -23.1269
   7   2.0000      -0.754651       -20.5351
   8   2.0000      -0.751856       -20.4590
   9   2.0000      -0.628074       -17.0908
  10   2.0000      -0.607549       -16.5322
  11   2.0000      -0.518079       -14.0976
  12   2.0000      -0.506001       -13.7690
  13   2.0000      -0.454128       -12.3575
  14   2.0000      -0.436285       -11.8719
  15   2.0000      -0.419232       -11.4079
  16   2.0000      -0.401007       -10.9120
  17   2.0000      -0.390924       -10.6376
  18   2.0000      -0.387711       -10.5502
  19   2.0000      -0.333397        -9.0722
  20   2.0000      -0.326061        -8.8726
  21   2.0000      -0.314075        -8.5464
  22   2.0000      -0.249648        -6.7933
  23   0.0000       0.029173         0.7938
  24   0.0000       0.066601         1.8123
  25   0.0000       0.100208         2.7268
  26   0.0000       0.106143         2.8883
  27   0.0000       0.110927         3.0185

MULLIKEN ATOMIC CHARGES
-----------------------
   0 C :   -0.109182
   1 C :   -0.108103
   2 C :    0.001736
   3 C :   -0.072606
   4 C :   -0.073089
   5 C :    0.002608
   6 H :    0.022997
   7 H :    0.023058
   8 H :    0.040140
   9 H :    0.045050
  10 H :    0.038307
  11 H :    0.032784
  12 H :    0.032809
  13 H :    0.038449
  14 H :    0.045061
  15 H :    0.039980
Sum of atomic charges:    0.0000000

LOEWDIN ATOMIC CHARGES
----------------------
   0 C :   -0.053015
   1 C :   -0.052996
   2 C :   -0.051648
   3 C :   -0.046256
   4 C :   -0.046293
   5 C :   -0.051613
   6 H :    0.027431
   7 H :    0.027434
   8 H :    0.034098
   9 H :    0.035012
  10 H :    0.027338
  11 H :    0.027004
  12 H :    0.027010
  13 H :    0.027392
  14 H :    0.035033
  15 H :    0.034069

  Mayer bond orders larger than 0.100000
B(  0-C ,  1-C ) :   1.9478 B(  0-C ,  5-C ) :   1.0269 B(  0-C ,  6-H ) :   0.9641
B(  1-C ,  2-C ) :   1.0270 B(  1-C ,  7-H ) :   0.9640 B(  2-C ,  3-C ) :   1.0758
B(  2-C ,  8-H ) :   0.9382 B(  2-C ,  9-H ) :   0.9264 B(  3-C ,  4-C ) :   1.0677
B(  3-C , 10-H ) :   0.9507 B(  3-C , 11-H ) :   0.9448 B(  4-C ,  5-C ) :   1.0758
B(  4-C , 12-H ) :   0.9448 B(  4-C , 13-H ) :   0.9507 B(  5-C , 14-H ) :   0.9263
B(  5-C , 15-H ) :   0.9382

Dispersion correction           -0.011879874
FINAL SINGLE POINT ENERGY      -234.206943507214

DIPOLE MOMENT
-------------
                                X             Y             Z
Electronic contribution:     -0.52207       1.81021      -0.26749
Nuclear contribution   :      0.55279      -1.91655       0.28331
                        -----------------------------------------
Total Dipole Moment    :      0.03072      -0.10634       0.01582
                        -----------------------------------------
Magnitude (a.u.)       :      0.11181
Magnitude (Debye)      :      0.28421

Rotational constants in cm-1:     0.158669     0.152133     0.085584
Rotational constants in MHz :  4756.789955  4560.819557  2565.751143

                             ****ORCA TERMINATED NORMALLY****
TOTAL RUN TIME: 0 days 0 hours 0 minutes 44 seconds 44 msec
