   * xtb version 6.6.1 (8d0f1dd) compiled by 'conda@1efc2f54142f' on 2023-08-01
          program call               : /gpfs/fs1/home/copan/code/autode-practice/.pixi/envs/default/bin/xtb r0_C4H6_conf0_opt_xtb.xyz --chrg 0 --uhf 0 --opt

   ID    Z sym.   atoms
    1    6 C      1-4
    2    1 H      5-10

          :  Hamiltonian                  GFN2-xTB          :
 * total energy  :   -11.5499442 Eh     change       -0.2730260E-11 Eh
 * total energy  :   -11.5522696 Eh     change       -0.2325451E-02 Eh
 * total energy  :   -11.5526769 Eh     change       -0.4072793E-03 Eh
 * total energy  :   -11.5526985 Eh     change       -0.2157919E-04 Eh
 * total energy  :   -11.5527014 Eh     change       -0.2930985E-05 Eh
 * total energy  :   -11.5527021 Eh     change       -0.6306379E-06 Eh
   *** GEOMETRY OPTIMIZATION CONVERGED AFTER 6 ITERATIONS ***

 final structure:
================
10
 xtb: 6.6.1 (8d0f1dd)
C           -1.82205215253824        0.11862177179115       -0.13395482462690
C           -0.55338054419949        0.46363697456061       -0.32433862808890
C            0.55327949972455       -0.46288176712021       -0.22215784843082
C            1.82216679138219       -0.11864378595487       -0.41236409697159
H           -2.62726010909751        0.82825203417930       -0.21705990651497
H           -2.09979899837769       -0.89365552197605        0.11179444535816
H           -0.29684454824309        1.48592108669136       -0.57139949832901
H            0.29648344991420       -1.48518028838436        0.02478895157446
H            2.10084019182958        0.89319957304770       -0.65862428534669
H            2.62656641960550       -0.82917007683464       -0.32938430862374

          :  Hamiltonian                  GFN2-xTB          :
         :: total energy             -11.552702064836 Eh    ::
         :: gradient norm              0.000185387382 Eh/a0 ::
         :: HOMO-LUMO gap              3.784125183614 eV    ::
         :: SCC energy               -11.785058045980 Eh    ::
         :: -> dispersion             -0.004408203324 Eh    ::
         :: repulsion energy           0.232356137136 Eh    ::

    * Orbital Energies and Occupations

         #    Occupation            Energy/Eh            Energy/eV
      -------------------------------------------------------------
         1        2.0000           -0.6245555             -16.9950
         2        2.0000           -0.6062465             -16.4968
         3        2.0000           -0.5610652             -15.2674
         4        2.0000           -0.5437154             -14.7952
         5        2.0000           -0.5004869             -13.6189
         6        2.0000           -0.4998210             -13.6008
         7        2.0000           -0.4531107             -12.3298
         8        2.0000           -0.4508540             -12.2684
         9        2.0000           -0.4493994             -12.2288
        10        2.0000           -0.4255689             -11.5803
        11        2.0000           -0.3868842             -10.5277 (HOMO)
        12                         -0.2478202              -6.7435 (LUMO)
        13                         -0.1417012              -3.8559
        14                          0.1158618               3.1528
        15                          0.1269760               3.4552
        16                          0.1743302               4.7438
        17                          0.2007365               5.4623
        18                          0.2119775               5.7682
        19                          0.3722160              10.1285
        20                          0.4490732              12.2199
        21                          0.5525372              15.0353
        22                          0.6752888              18.3755
      -------------------------------------------------------------
                  HL-Gap            0.1390640 Eh            3.7841 eV

     #   Z          covCN         q      C6AA      α(0)
     1   6 C        2.841    -0.086    30.145     8.998
     2   6 C        2.894    -0.025    28.636     8.774
     3   6 C        2.894    -0.025    28.636     8.774
     4   6 C        2.841    -0.086    30.145     8.998
     5   1 H        0.926     0.036     2.502     2.474
     6   1 H        0.926     0.039     2.460     2.453
     7   1 H        0.925     0.036     2.500     2.472
     8   1 H        0.925     0.036     2.500     2.473
     9   1 H        0.926     0.039     2.460     2.453
    10   1 H        0.926     0.036     2.502     2.474

Wiberg/Mayer (AO) data.
largest (>0.10) Wiberg bond orders for each atom

     #   Z sym  total        # sym  WBO       # sym  WBO       # sym  WBO
 ---------------------------------------------------------------------------
     1   6 C    3.992 --     2 C    1.888     5 H    0.979     6 H    0.976
                             4 C    0.145
     2   6 C    3.992 --     1 C    1.888     3 C    1.118     7 H    0.964
     3   6 C    3.992 --     4 C    1.888     2 C    1.118     8 H    0.964
     4   6 C    3.992 --     3 C    1.888    10 H    0.979     9 H    0.976
                             1 C    0.145
     5   1 H    0.998 --     1 C    0.979
     6   1 H    0.998 --     1 C    0.976
     7   1 H    0.999 --     2 C    0.964
     8   1 H    0.999 --     3 C    0.964
     9   1 H    0.998 --     4 C    0.976
    10   1 H    0.998 --     4 C    0.979
 ---------------------------------------------------------------------------

molecular dipole:
                 x           y           z       tot (Debye)
 q only:       -0.000      -0.000      -0.000
   full:       -0.000      -0.000      -0.000       0.001

           -------------------------------------------------
          | TOTAL ENERGY              -11.552702064836 Eh   |
          | GRADIENT NORM               0.000185387382 Eh/α |
          | HOMO-LUMO GAP               3.784125183614 eV   |
           -------------------------------------------------

 * finished run on 2025/05/23 at 11:03:29.161
