                         Program Version 5.0.4 -  RELEASE  -
|  1> ! LooseOpt PBE0 RIJCOSX D3BJ def2-SVP def2/J
|  2> %geom MaxIter 10 end
|  3> %output
|  4> xyzfile=True
|  5> end
|  6> %scf
|  7> maxiter 250
|  8> end
|  9> %output
| 10> Print[P_Hirshfeld] = 1
| 11> end
| 12> % maxcore
| 13> 4000
| 14> %pal nprocs 8
| 15> end
| 16> *xyz 0 1
| 17> C   -1.82205215   0.11862177  -0.13395482
| 18> C   -0.55338054   0.46363697  -0.32433863
| 19> C    0.55327950  -0.46288177  -0.22215785
| 20> C    1.82216679  -0.11864379  -0.41236410
| 21> H   -2.62726011   0.82825203  -0.21705991
| 22> H   -2.09979900  -0.89365552   0.11179445
| 23> H   -0.29684455   1.48592109  -0.57139950
| 24> H    0.29648345  -1.48518029   0.02478895
| 25> H    2.10084019   0.89319957  -0.65862429
| 26> H    2.62656642  -0.82917008  -0.32938431
| 27> *
| 28>
| 29>                          ****END OF INPUT****
 Total Charge           Charge          ....    0
 Multiplicity           Mult            ....    1
 Number of Electrons    NEL             ....   30
Dispersion correction           -0.005389076
FINAL SINGLE POINT ENERGY      -155.684631635372
Dispersion correction            ... done
Dispersion correction           -0.005358944
FINAL SINGLE POINT ENERGY      -155.686038550928
Dispersion correction            ... done
Dispersion correction           -0.005355788
FINAL SINGLE POINT ENERGY      -155.686063821397
Dispersion correction            ... done
                    ***********************HURRAY********************

CARTESIAN COORDINATES (ANGSTROEM)
---------------------------------
  C     -1.841311    0.119467   -0.132713
  C     -0.559562    0.462273   -0.323674
  C      0.559546   -0.462181   -0.222882
  C      1.841317   -0.119451   -0.413839
  H     -2.650197    0.848584   -0.219316
  H     -2.122393   -0.908614    0.117411
  H     -0.311068    1.501136   -0.573354
  H      0.311030   -1.501040    0.026797
  H      2.122532    0.908597   -0.663942
  H      2.650106   -0.848673   -0.327189

 Multiplicity           Mult            ....    1
 Number of Electrons    NEL             ....   30
 Basis Dimension        Dim             ....   86

ORBITAL ENERGIES
----------------

  NO   OCC          E(Eh)            E(eV)
   0   2.0000     -10.242758      -278.7196
   1   2.0000     -10.242571      -278.7145
   2   2.0000     -10.236428      -278.5474
   3   2.0000     -10.236401      -278.5466
   4   2.0000      -0.823043       -22.3961
   5   2.0000      -0.748457       -20.3665
   6   2.0000      -0.617032       -16.7903
   7   2.0000      -0.563002       -15.3201
   8   2.0000      -0.480242       -13.0680
   9   2.0000      -0.476045       -12.9538
  10   2.0000      -0.407256       -11.0820
  11   2.0000      -0.396613       -10.7924
  12   2.0000      -0.356154        -9.6914
  13   2.0000      -0.341524        -9.2933
  14   2.0000      -0.247659        -6.7391
  15   0.0000      -0.027863        -0.7582
  16   0.0000       0.078722         2.1421
  17   0.0000       0.089160         2.4262
  18   0.0000       0.098896         2.6911
  19   0.0000       0.106204         2.8900

MULLIKEN ATOMIC CHARGES
-----------------------
   0 C :   -0.079376
   1 C :   -0.050780
   2 C :   -0.050798
   3 C :   -0.079375
   4 H :    0.054839
   5 H :    0.047076
   6 H :    0.028250
   7 H :    0.028250
   8 H :    0.047076
   9 H :    0.054838
Sum of atomic charges:   -0.0000000

LOEWDIN ATOMIC CHARGES
----------------------
   0 C :   -0.056705
   1 C :   -0.037995
   2 C :   -0.037997
   3 C :   -0.056710
   4 H :    0.031696
   5 H :    0.028712
   6 H :    0.034295
   7 H :    0.034295
   8 H :    0.028712
   9 H :    0.031697

  Mayer bond orders larger than 0.100000
B(  0-C ,  1-C ) :   1.9097 B(  0-C ,  3-C ) :   0.1257 B(  0-C ,  4-H ) :   0.9542
B(  0-C ,  5-H ) :   0.9577 B(  1-C ,  2-C ) :   1.1105 B(  1-C ,  6-H ) :   0.9628
B(  2-C ,  3-C ) :   1.9097 B(  2-C ,  7-H ) :   0.9628 B(  3-C ,  8-H ) :   0.9577
B(  3-C ,  9-H ) :   0.9542

Dispersion correction           -0.005354069
FINAL SINGLE POINT ENERGY      -155.686077938465

DIPOLE MOMENT
-------------
                                X             Y             Z
Electronic contribution:     -0.00004       0.00015      -0.00005
Nuclear contribution   :      0.00002      -0.00014       0.00006
                        -----------------------------------------
Total Dipole Moment    :     -0.00002       0.00001       0.00001
                        -----------------------------------------
Magnitude (a.u.)       :      0.00002
Magnitude (Debye)      :      0.00005

Rotational constants in cm-1:     1.400969     0.147185     0.133192
Rotational constants in MHz : 42000.005229  4412.483327  3992.983990

                             ****ORCA TERMINATED NORMALLY****
TOTAL RUN TIME: 0 days 0 hours 0 minutes 22 seconds 785 msec
