                         Program Version 5.0.4 -  RELEASE  -
|  1> ! LooseOpt PBE0 RIJCOSX D3BJ def2-SVP def2/J
|  2> %geom MaxIter 10 end
|  3> %output
|  4> xyzfile=True
|  5> end
|  6> %scf
|  7> maxiter 250
|  8> end
|  9> %output
| 10> Print[P_Hirshfeld] = 1
| 11> end
| 12> % maxcore
| 13> 4000
| 14> %pal nprocs 8
| 15> end
| 16> *xyz 0 1
| 17> C   -0.62391997  -0.20474920  -0.04877077
| 18> C    0.62310764   0.20552136   0.05061959
| 19> H   -1.38619338   0.39406992  -0.52111201
| 20> H   -0.94274233  -1.16064463   0.33487207
| 21> H    1.38611430  -0.39370741   0.51974780
| 22> H    0.94353375   1.15950996  -0.33545668
| 23> *
| 24>
| 25>                          ****END OF INPUT****
 Total Charge           Charge          ....    0
 Multiplicity           Mult            ....    1
 Number of Electrons    NEL             ....   16
Dispersion correction           -0.001904054
FINAL SINGLE POINT ENERGY       -78.426552623544
Dispersion correction            ... done
Dispersion correction           -0.001899342
FINAL SINGLE POINT ENERGY       -78.427515075225
Dispersion correction            ... done
                    ***********************HURRAY********************

CARTESIAN COORDINATES (ANGSTROEM)
---------------------------------
  C     -0.629990   -0.207289   -0.050239
  C      0.629717    0.207230    0.050164
  H     -1.402198    0.403208   -0.528751
  H     -0.951527   -1.177417    0.341526
  H      1.402176   -0.403020    0.528645
  H      0.951721    1.177289   -0.341445

 Multiplicity           Mult            ....    1
 Number of Electrons    NEL             ....   16
 Basis Dimension        Dim             ....   48

ORBITAL ENERGIES
----------------

  NO   OCC          E(Eh)            E(eV)
   0   2.0000     -10.236300      -278.5439
   1   2.0000     -10.235506      -278.5223
   2   2.0000      -0.773715       -21.0539
   3   2.0000      -0.587700       -15.9921
   4   2.0000      -0.479168       -13.0388
   5   2.0000      -0.432500       -11.7689
   6   2.0000      -0.362532        -9.8650
   7   2.0000      -0.286827        -7.8050
   8   0.0000       0.013857         0.3771
   9   0.0000       0.096434         2.6241
  10   0.0000       0.114592         3.1182
  11   0.0000       0.128263         3.4902
  12   0.0000       0.200318         5.4509

MULLIKEN ATOMIC CHARGES
-----------------------
   0 C :   -0.115572
   1 C :   -0.115709
   2 H :    0.057756
   3 H :    0.057906
   4 H :    0.057733
   5 H :    0.057886
Sum of atomic charges:   -0.0000000

LOEWDIN ATOMIC CHARGES
----------------------
   0 C :   -0.060565
   1 C :   -0.060550
   2 H :    0.030274
   3 H :    0.030307
   4 H :    0.030251
   5 H :    0.030282

  Mayer bond orders larger than 0.100000
B(  0-C ,  1-C ) :   2.0653 B(  0-C ,  2-H ) :   0.9635 B(  0-C ,  3-H ) :   0.9635
B(  1-C ,  4-H ) :   0.9635 B(  1-C ,  5-H ) :   0.9635

Dispersion correction           -0.001899295
FINAL SINGLE POINT ENERGY       -78.427524545019

DIPOLE MOMENT
-------------
                                X             Y             Z
Electronic contribution:     -0.00050      -0.00012      -0.00008
Nuclear contribution   :      0.00058       0.00014       0.00010
                        -----------------------------------------
Total Dipole Moment    :      0.00008       0.00003       0.00002
                        -----------------------------------------
Magnitude (a.u.)       :      0.00008
Magnitude (Debye)      :      0.00021

Rotational constants in cm-1:     4.836135     1.000652     0.829101
Rotational constants in MHz : 144983.681863 29998.790521 24855.833295

                             ****ORCA TERMINATED NORMALLY****
TOTAL RUN TIME: 0 days 0 hours 0 minutes 8 seconds 274 msec
