   * xtb version 6.6.1 (8d0f1dd) compiled by 'conda@1efc2f54142f' on 2023-08-01
          program call               : /gpfs/fs1/home/copan/code/autode-practice/.pixi/envs/default/bin/xtb r1_C2H4_conf0_opt_xtb.xyz --chrg 0 --uhf 0 --opt

   ID    Z sym.   atoms
    1    6 C      1, 2
    2    1 H      3-6

          :  Hamiltonian                  GFN2-xTB          :
 * total energy  :    -6.2694739 Eh     change       -0.1646772E-10 Eh
 * total energy  :    -6.2708692 Eh     change       -0.1395380E-02 Eh
 * total energy  :    -6.2712457 Eh     change       -0.3764477E-03 Eh
 * total energy  :    -6.2712597 Eh     change       -0.1397882E-04 Eh
 * total energy  :    -6.2712593 Eh     change        0.4009369E-06 Eh
 * total energy  :    -6.2712595 Eh     change       -0.2278601E-06 Eh
   *** GEOMETRY OPTIMIZATION CONVERGED AFTER 6 ITERATIONS ***

 final structure:
================
6
 xtb: 6.6.1 (8d0f1dd)
C           -0.62391997453712       -0.20474920330651       -0.04877077375308
C            0.62310763933065        0.20552135656148        0.05061958891540
H           -1.38619337852348        0.39406992032927       -0.52111200819505
H           -0.94274232773992       -1.16064462726669        0.33487207151517
H            1.38611429566589       -0.39370740555558        0.51974780467446
H            0.94353374580398        1.15950995923803       -0.33545668315689

          :  Hamiltonian                  GFN2-xTB          :
         :: total energy              -6.271259488647 Eh    ::
         :: gradient norm              0.000653997036 Eh/a0 ::
         :: HOMO-LUMO gap              5.675216482489 eV    ::
         :: SCC energy                -6.398603692313 Eh    ::
         :: -> dispersion             -0.001449536729 Eh    ::
         :: repulsion energy           0.127344169871 Eh    ::

    * Orbital Energies and Occupations

         #    Occupation            Energy/Eh            Energy/eV
      -------------------------------------------------------------
         1        2.0000           -0.6096222             -16.5887
         2        2.0000           -0.5496096             -14.9556
         3        2.0000           -0.5062192             -13.7749
         4        2.0000           -0.4715462             -12.8314
         5        2.0000           -0.4313707             -11.7382
         6        2.0000           -0.4159212             -11.3178 (HOMO)
         7                         -0.2073608              -5.6426 (LUMO)
         8                          0.1412378               3.8433
         9                          0.1579884               4.2991
        10                          0.2033818               5.5343
        11                          0.4390463              11.9471
        12                          0.6050409              16.4640
      -------------------------------------------------------------
                  HL-Gap            0.2085604 Eh            5.6752 eV

     #   Z          covCN         q      C6AA      α(0)
     1   6 C        2.832    -0.077    29.910     8.962
     2   6 C        2.832    -0.077    29.912     8.962
     3   1 H        0.926     0.038     2.469     2.457
     4   1 H        0.926     0.038     2.469     2.457
     5   1 H        0.926     0.038     2.469     2.457
     6   1 H        0.926     0.038     2.470     2.457

Wiberg/Mayer (AO) data.
largest (>0.10) Wiberg bond orders for each atom

     #   Z sym  total        # sym  WBO       # sym  WBO       # sym  WBO
 ---------------------------------------------------------------------------
     1   6 C    3.993 --     2 C    2.037     3 H    0.977     4 H    0.977
     2   6 C    3.993 --     1 C    2.037     5 H    0.977     6 H    0.977
     3   1 H    0.999 --     1 C    0.977
     4   1 H    0.999 --     1 C    0.977
     5   1 H    0.999 --     2 C    0.977
     6   1 H    0.999 --     2 C    0.977
 ---------------------------------------------------------------------------

molecular dipole:
                 x           y           z       tot (Debye)
 q only:        0.000      -0.000      -0.000
   full:        0.000      -0.001      -0.001       0.003

           -------------------------------------------------
          | TOTAL ENERGY               -6.271259488647 Eh   |
          | GRADIENT NORM               0.000653997036 Eh/α |
          | HOMO-LUMO GAP               5.675216482489 eV   |
           -------------------------------------------------

 * finished run on 2025/05/23 at 11:03:52.853
