                         Program Version 5.0.4 -  RELEASE  -
|  1> ! EnGrad PBE0 RIJCOSX D3BJ def2-SVP def2/J
|  2> %output
|  3> xyzfile=True
|  4> end
|  5> %scf
|  6> maxiter 250
|  7> end
|  8> %output
|  9> Print[P_Hirshfeld] = 1
| 10> end
| 11> % maxcore
| 12> 4000
| 13> *xyz 0 2
| 14> O   -2.22680311  -0.87593233   1.20423313
| 15> O   -0.65726710  -0.02131879   0.95936375
| 16> C   -0.67195248   0.47875997  -0.33153760
| 17> C    0.42860347   1.30423308   0.24163011
| 18> C    1.59009591   0.48734031   0.22853012
| 19> C    1.25493125  -0.69028531  -0.38267354
| 20> C   -0.03450431  -0.62624739  -1.13279758
| 21> H   -2.30840540  -0.51313895   2.09884151
| 22> H   -1.60501191   0.94987272  -0.66548818
| 23> H    0.29153370   2.27040570   0.72820909
| 24> H    2.52422592   0.69605949   0.75048649
| 25> H    1.92919235  -1.54842571  -0.44795677
| 26> H    0.14023748  -0.38108854  -2.19541188
| 27> H   -0.65488222  -1.53013779  -1.05544510
| 28> *
| 29>
| 30>                          ****END OF INPUT****

CARTESIAN COORDINATES (ANGSTROEM)
---------------------------------
  O     -2.226803   -0.875932    1.204233
  O     -0.657267   -0.021319    0.959364
  C     -0.671952    0.478760   -0.331538
  C      0.428603    1.304233    0.241630
  C      1.590096    0.487340    0.228530
  C      1.254931   -0.690285   -0.382674
  C     -0.034504   -0.626247   -1.132798
  H     -2.308405   -0.513139    2.098842
  H     -1.605012    0.949873   -0.665488
  H      0.291534    2.270406    0.728209
  H      2.524226    0.696059    0.750486
  H      1.929192   -1.548426   -0.447957
  H      0.140237   -0.381089   -2.195412
  H     -0.654882   -1.530138   -1.055445

 Total Charge           Charge          ....    0
 Multiplicity           Mult            ....    2
 Number of Electrons    NEL             ....   53
 Basis Dimension        Dim             ....  133

ORBITAL ENERGIES
----------------
                 SPIN UP ORBITALS
  NO   OCC          E(Eh)            E(eV)
   0   1.0000     -19.239447      -523.5320
   1   1.0000     -19.198571      -522.4197
   2   1.0000     -10.290821      -280.0275
   3   1.0000     -10.284617      -279.8587
   4   1.0000     -10.257085      -279.1095
   5   1.0000     -10.247442      -278.8471
   6   1.0000     -10.238933      -278.6155
   7   1.0000      -1.064591       -28.9690
   8   1.0000      -0.949859       -25.8470
   9   1.0000      -0.852600       -23.2004
  10   1.0000      -0.749516       -20.3954
  11   1.0000      -0.706154       -19.2154
  12   1.0000      -0.585625       -15.9357
  13   1.0000      -0.567791       -15.4504
  14   1.0000      -0.557429       -15.1684
  15   1.0000      -0.484032       -13.1712
  16   1.0000      -0.466083       -12.6828
  17   1.0000      -0.426457       -11.6045
  18   1.0000      -0.415549       -11.3077
  19   1.0000      -0.412139       -11.2149
  20   1.0000      -0.401340       -10.9210
  21   1.0000      -0.378332       -10.2949
  22   1.0000      -0.367531       -10.0010
  23   1.0000      -0.313163        -8.5216
  24   1.0000      -0.298634        -8.1263
  25   1.0000      -0.266932        -7.2636
  26   1.0000      -0.210050        -5.7157
  27   0.0000      -0.049363        -1.3432
  28   0.0000       0.042260         1.1499
  29   0.0000       0.076117         2.0712
  30   0.0000       0.106083         2.8867
  31   0.0000       0.115120         3.1326

                 SPIN DOWN ORBITALS
  NO   OCC          E(Eh)            E(eV)
   0   1.0000     -19.241325      -523.5831
   1   1.0000     -19.181790      -521.9630
   2   1.0000     -10.291349      -280.0418
   3   1.0000     -10.278582      -279.6944
   4   1.0000     -10.251065      -278.9457
   5   1.0000     -10.249590      -278.9055
   6   1.0000     -10.239400      -278.6282
   7   1.0000      -1.064746       -28.9732
   8   1.0000      -0.912662       -24.8348
   9   1.0000      -0.845044       -22.9948
  10   1.0000      -0.746702       -20.3188
  11   1.0000      -0.697880       -18.9903
  12   1.0000      -0.581911       -15.8346
  13   1.0000      -0.565786       -15.3958
  14   1.0000      -0.552556       -15.0358
  15   1.0000      -0.476507       -12.9664
  16   1.0000      -0.463338       -12.6081
  17   1.0000      -0.418390       -11.3850
  18   1.0000      -0.413554       -11.2534
  19   1.0000      -0.407934       -11.1005
  20   1.0000      -0.393742       -10.7143
  21   1.0000      -0.375176       -10.2091
  22   1.0000      -0.350117        -9.5272
  23   1.0000      -0.296639        -8.0719
  24   1.0000      -0.271057        -7.3758
  25   1.0000      -0.252706        -6.8765
  26   0.0000      -0.079719        -2.1693
  27   0.0000      -0.015382        -0.4186
  28   0.0000       0.059161         1.6098
  29   0.0000       0.077686         2.1140
  30   0.0000       0.108872         2.9626

MULLIKEN ATOMIC CHARGES AND SPIN POPULATIONS
--------------------------------------------
   0 O :   -0.282094    0.588234
   1 O :   -0.301594   -0.128368
   2 C :    0.041046   -0.038119
   3 C :    0.018004    0.410492
   4 C :    0.006067   -0.267138
   5 C :   -0.085912    0.495605
   6 C :    0.121115   -0.038185
   7 H :    0.170013   -0.013054
   8 H :    0.043910    0.003851
   9 H :    0.060561   -0.019227
  10 H :    0.038172    0.009861
  11 H :    0.038764   -0.024462
  12 H :    0.057365    0.015635
  13 H :    0.074584    0.004877
Sum of atomic charges         :   -0.0000000

LOEWDIN ATOMIC CHARGES AND SPIN POPULATIONS
-------------------------------------------
   0 O :   -0.186421    0.546437
   1 O :   -0.111158   -0.091600
   2 C :    0.045357   -0.010408
   3 C :    0.051129    0.312853
   4 C :   -0.044771   -0.161362
   5 C :    0.027938    0.389167
   6 C :   -0.049381   -0.007778
   7 H :    0.051362    0.004105
   8 H :    0.023225    0.002050
   9 H :    0.037142   -0.000401
  10 H :    0.036792    0.000295
  11 H :    0.028410   -0.000992
  12 H :    0.039282    0.013597
  13 H :    0.051094    0.004036

  Mayer bond orders larger than 0.100000
B(  0-O ,  1-O ) :   0.4747 B(  0-O ,  7-H ) :   0.9855 B(  1-O ,  2-C ) :   0.9075
B(  1-O ,  3-C ) :   0.4370 B(  2-C ,  3-C ) :   0.9667 B(  2-C ,  6-C ) :   1.0026
B(  2-C ,  8-H ) :   0.9586 B(  3-C ,  4-C ) :   1.1886 B(  3-C ,  9-H ) :   0.9958
B(  4-C ,  5-C ) :   1.5776 B(  4-C , 10-H ) :   0.9943 B(  5-C ,  6-C ) :   0.9989
B(  5-C , 11-H ) :   0.9759 B(  6-C , 12-H ) :   0.9260 B(  6-C , 13-H ) :   0.9270

Dispersion correction           -0.009953167
FINAL SINGLE POINT ENERGY      -344.340003194441
Dispersion correction            ... done

DIPOLE MOMENT
-------------
                                X             Y             Z
Electronic contribution:     -0.60101       0.55920       1.58357
Nuclear contribution   :      1.25230       0.13052      -1.85664
                        -----------------------------------------
Total Dipole Moment    :      0.65128       0.68972      -0.27306
                        -----------------------------------------
Magnitude (a.u.)       :      0.98714
Magnitude (Debye)      :      2.50911

Rotational constants in cm-1:     0.170437     0.075788     0.066753
Rotational constants in MHz :  5109.572278  2272.067266  2001.201743

                             ****ORCA TERMINATED NORMALLY****
TOTAL RUN TIME: 0 days 0 hours 1 minutes 23 seconds 502 msec
