                         Program Version 5.0.4 -  RELEASE  -
|  1> ! EnGrad PBE0 RIJCOSX D3BJ def2-SVP def2/J
|  2> %output
|  3> xyzfile=True
|  4> end
|  5> %scf
|  6> maxiter 250
|  7> end
|  8> %output
|  9> Print[P_Hirshfeld] = 1
| 10> end
| 11> % maxcore
| 12> 4000
| 13> *xyz 0 2
| 14> O   -2.22423778  -0.87405576   1.20272475
| 15> O   -0.74541450   0.03131546   1.03016245
| 16> C   -0.65984217   0.47106829  -0.33040495
| 17> C    0.42524897   1.28742862   0.24826219
| 18> C    1.58383634   0.48144927   0.22235646
| 19> C    1.34126502  -0.71597797  -0.43835466
| 20> C   -0.03600860  -0.61581269  -1.14416611
| 21> H   -2.30679410  -0.50836366   2.09944153
| 22> H   -1.60851334   0.94670160  -0.66262805
| 23> H    0.28616001   2.26451595   0.73078805
| 24> H    2.52319196   0.69626418   0.75073931
| 25> H    1.93127241  -1.54705496  -0.44939781
| 26> H    0.14078623  -0.38465205  -2.19992893
| 27> H   -0.65057502  -1.53251201  -1.06010182
| 28> *
| 29>
| 30>                          ****END OF INPUT****

CARTESIAN COORDINATES (ANGSTROEM)
---------------------------------
  O     -2.224238   -0.874056    1.202725
  O     -0.745414    0.031315    1.030162
  C     -0.659842    0.471068   -0.330405
  C      0.425249    1.287429    0.248262
  C      1.583836    0.481449    0.222356
  C      1.341265   -0.715978   -0.438355
  C     -0.036009   -0.615813   -1.144166
  H     -2.306794   -0.508364    2.099442
  H     -1.608513    0.946702   -0.662628
  H      0.286160    2.264516    0.730788
  H      2.523192    0.696264    0.750739
  H      1.931272   -1.547055   -0.449398
  H      0.140786   -0.384652   -2.199929
  H     -0.650575   -1.532512   -1.060102

 Total Charge           Charge          ....    0
 Multiplicity           Mult            ....    2
 Number of Electrons    NEL             ....   53
 Basis Dimension        Dim             ....  133

ORBITAL ENERGIES
----------------
                 SPIN UP ORBITALS
  NO   OCC          E(Eh)            E(eV)
   0   1.0000     -19.245169      -523.6877
   1   1.0000     -19.209466      -522.7162
   2   1.0000     -10.292016      -280.0600
   3   1.0000     -10.276305      -279.6325
   4   1.0000     -10.255100      -279.0554
   5   1.0000     -10.249160      -278.8938
   6   1.0000     -10.243088      -278.7286
   7   1.0000      -1.051701       -28.6182
   8   1.0000      -0.950867       -25.8744
   9   1.0000      -0.849722       -23.1221
  10   1.0000      -0.742991       -20.2178
  11   1.0000      -0.711270       -19.3546
  12   1.0000      -0.587898       -15.9975
  13   1.0000      -0.569755       -15.5038
  14   1.0000      -0.550463       -14.9789
  15   1.0000      -0.484674       -13.1886
  16   1.0000      -0.464764       -12.6469
  17   1.0000      -0.433275       -11.7900
  18   1.0000      -0.421663       -11.4740
  19   1.0000      -0.410058       -11.1582
  20   1.0000      -0.394329       -10.7302
  21   1.0000      -0.369985       -10.0678
  22   1.0000      -0.365030        -9.9330
  23   1.0000      -0.317252        -8.6329
  24   1.0000      -0.308428        -8.3927
  25   1.0000      -0.265124        -7.2144
  26   1.0000      -0.212437        -5.7807
  27   0.0000      -0.043023        -1.1707
  28   0.0000       0.046881         1.2757
  29   0.0000       0.077947         2.1210
  30   0.0000       0.103759         2.8234
  31   0.0000       0.115060         3.1309

                 SPIN DOWN ORBITALS
  NO   OCC          E(Eh)            E(eV)
   0   1.0000     -19.247836      -523.7602
   1   1.0000     -19.195613      -522.3392
   2   1.0000     -10.292524      -280.0738
   3   1.0000     -10.269031      -279.4345
   4   1.0000     -10.253233      -279.0047
   5   1.0000     -10.246530      -278.8222
   6   1.0000     -10.243594      -278.7424
   7   1.0000      -1.050017       -28.5724
   8   1.0000      -0.922975       -25.1154
   9   1.0000      -0.842525       -22.9263
  10   1.0000      -0.739968       -20.1356
  11   1.0000      -0.699786       -19.0421
  12   1.0000      -0.583184       -15.8693
  13   1.0000      -0.564364       -15.3571
  14   1.0000      -0.548435       -14.9237
  15   1.0000      -0.477501       -12.9935
  16   1.0000      -0.459954       -12.5160
  17   1.0000      -0.425378       -11.5751
  18   1.0000      -0.417496       -11.3606
  19   1.0000      -0.407495       -11.0885
  20   1.0000      -0.389351       -10.5948
  21   1.0000      -0.365886        -9.9563
  22   1.0000      -0.350275        -9.5315
  23   1.0000      -0.309405        -8.4193
  24   1.0000      -0.281955        -7.6724
  25   1.0000      -0.254942        -6.9373
  26   0.0000      -0.084665        -2.3039
  27   0.0000      -0.010245        -0.2788
  28   0.0000       0.065838         1.7916
  29   0.0000       0.080121         2.1802
  30   0.0000       0.106941         2.9100

MULLIKEN ATOMIC CHARGES AND SPIN POPULATIONS
--------------------------------------------
   0 O :   -0.264885    0.483794
   1 O :   -0.312916   -0.150406
   2 C :    0.059512   -0.038362
   3 C :   -0.005159    0.493947
   4 C :    0.006302   -0.305067
   5 C :   -0.053707    0.587959
   6 C :    0.090291   -0.045834
   7 H :    0.178202   -0.010358
   8 H :    0.053113    0.003338
   9 H :    0.062100   -0.023732
  10 H :    0.039722    0.011210
  11 H :    0.006764   -0.026825
  12 H :    0.064241    0.015933
  13 H :    0.076420    0.004404
Sum of atomic charges         :    0.0000000

LOEWDIN ATOMIC CHARGES AND SPIN POPULATIONS
-------------------------------------------
   0 O :   -0.171212    0.446893
   1 O :   -0.127161   -0.111498
   2 C :    0.056710   -0.007640
   3 C :    0.027048    0.375476
   4 C :   -0.040694   -0.181718
   5 C :    0.037785    0.462641
   6 C :   -0.045944   -0.009937
   7 H :    0.057529    0.003182
   8 H :    0.028130    0.001912
   9 H :    0.039076   -0.001246
  10 H :    0.035997    0.000681
  11 H :    0.010375    0.003728
  12 H :    0.041284    0.013736
  13 H :    0.051077    0.003789

  Mayer bond orders larger than 0.100000
B(  0-O ,  1-O ) :   0.5802 B(  0-O ,  7-H ) :   0.9814 B(  1-O ,  2-C ) :   0.8975
B(  1-O ,  3-C ) :   0.3244 B(  2-C ,  3-C ) :   0.9810 B(  2-C ,  6-C ) :   1.0139
B(  2-C ,  8-H ) :   0.9513 B(  3-C ,  4-C ) :   1.2423 B(  3-C ,  9-H ) :   0.9938
B(  4-C ,  5-C ) :   1.5094 B(  4-C , 10-H ) :   0.9912 B(  5-C ,  6-C ) :   0.9842
B(  5-C , 11-H ) :   0.9960 B(  6-C , 12-H ) :   0.9323 B(  6-C , 13-H ) :   0.9283

Dispersion correction           -0.009973001
FINAL SINGLE POINT ENERGY      -344.345539290271
Dispersion correction            ... done

DIPOLE MOMENT
-------------
                                X             Y             Z
Electronic contribution:     -0.69600       0.46016       1.61102
Nuclear contribution   :      1.27117       0.10223      -1.88083
                        -----------------------------------------
Total Dipole Moment    :      0.57517       0.56239      -0.26981
                        -----------------------------------------
Magnitude (a.u.)       :      0.84847
Magnitude (Debye)      :      2.15665

Rotational constants in cm-1:     0.167843     0.074236     0.065029
Rotational constants in MHz :  5031.808403  2225.538519  1949.520009

                             ****ORCA TERMINATED NORMALLY****
TOTAL RUN TIME: 0 days 0 hours 1 minutes 15 seconds 11 msec
