                         Program Version 5.0.4 -  RELEASE  -
|  1> ! EnGrad PBE0 RIJCOSX D3BJ def2-SVP def2/J
|  2> %output
|  3> xyzfile=True
|  4> end
|  5> %scf
|  6> maxiter 250
|  7> end
|  8> %output
|  9> Print[P_Hirshfeld] = 1
| 10> end
| 11> % maxcore
| 12> 4000
| 13> *xyz 0 2
| 14> O   -2.22127841  -0.87050440   1.20484636
| 15> O   -0.75197073   0.02966809   1.02482165
| 16> C   -0.66516425   0.47225260  -0.32266543
| 17> C    0.42817354   1.28951393   0.24769383
| 18> C    1.58765407   0.47735501   0.22233883
| 19> C    1.32373384  -0.69473739  -0.44071195
| 20> C   -0.02899210  -0.62224575  -1.13955879
| 21> H   -2.30806002  -0.50769128   2.09888765
| 22> H   -1.60585493   0.94512249  -0.66271936
| 23> H    0.28592906   2.26189180   0.73048383
| 24> H    2.52151919   0.69659768   0.75047507
| 25> H    1.94384040  -1.56165783  -0.45107417
| 26> H    0.13969788  -0.38329475  -2.20203107
| 27> H   -0.64885474  -1.53192180  -1.06132332
| 28> *
| 29>
| 30>                          ****END OF INPUT****

CARTESIAN COORDINATES (ANGSTROEM)
---------------------------------
  O     -2.221278   -0.870504    1.204846
  O     -0.751971    0.029668    1.024822
  C     -0.665164    0.472253   -0.322665
  C      0.428174    1.289514    0.247694
  C      1.587654    0.477355    0.222339
  C      1.323734   -0.694737   -0.440712
  C     -0.028992   -0.622246   -1.139559
  H     -2.308060   -0.507691    2.098888
  H     -1.605855    0.945122   -0.662719
  H      0.285929    2.261892    0.730484
  H      2.521519    0.696598    0.750475
  H      1.943840   -1.561658   -0.451074
  H      0.139698   -0.383295   -2.202031
  H     -0.648855   -1.531922   -1.061323

 Total Charge           Charge          ....    0
 Multiplicity           Mult            ....    2
 Number of Electrons    NEL             ....   53
 Basis Dimension        Dim             ....  133

ORBITAL ENERGIES
----------------
                 SPIN UP ORBITALS
  NO   OCC          E(Eh)            E(eV)
   0   1.0000     -19.245779      -523.7043
   1   1.0000     -19.210280      -522.7383
   2   1.0000     -10.291514      -280.0463
   3   1.0000     -10.275095      -279.5995
   4   1.0000     -10.255490      -279.0661
   5   1.0000     -10.247122      -278.8384
   6   1.0000     -10.242217      -278.7049
   7   1.0000      -1.055690       -28.7268
   8   1.0000      -0.952645       -25.9228
   9   1.0000      -0.852968       -23.2104
  10   1.0000      -0.743283       -20.2257
  11   1.0000      -0.709015       -19.2933
  12   1.0000      -0.585504       -15.9324
  13   1.0000      -0.567345       -15.4382
  14   1.0000      -0.551217       -14.9994
  15   1.0000      -0.486013       -13.2251
  16   1.0000      -0.466521       -12.6947
  17   1.0000      -0.433227       -11.7887
  18   1.0000      -0.416649       -11.3376
  19   1.0000      -0.409710       -11.1488
  20   1.0000      -0.399123       -10.8607
  21   1.0000      -0.371246       -10.1021
  22   1.0000      -0.366530        -9.9738
  23   1.0000      -0.318219        -8.6592
  24   1.0000      -0.308048        -8.3824
  25   1.0000      -0.265090        -7.2135
  26   1.0000      -0.210821        -5.7367
  27   0.0000      -0.041129        -1.1192
  28   0.0000       0.046793         1.2733
  29   0.0000       0.077482         2.1084
  30   0.0000       0.103563         2.8181
  31   0.0000       0.115186         3.1344

                 SPIN DOWN ORBITALS
  NO   OCC          E(Eh)            E(eV)
   0   1.0000     -19.248281      -523.7724
   1   1.0000     -19.196863      -522.3732
   2   1.0000     -10.292020      -280.0601
   3   1.0000     -10.267479      -279.3923
   4   1.0000     -10.251009      -278.9441
   5   1.0000     -10.247247      -278.8418
   6   1.0000     -10.242715      -278.7185
   7   1.0000      -1.053823       -28.6760
   8   1.0000      -0.925720       -25.1901
   9   1.0000      -0.845569       -23.0091
  10   1.0000      -0.739871       -20.1329
  11   1.0000      -0.697932       -18.9917
  12   1.0000      -0.580811       -15.8047
  13   1.0000      -0.562826       -15.3153
  14   1.0000      -0.547740       -14.9048
  15   1.0000      -0.478115       -13.0102
  16   1.0000      -0.461978       -12.5711
  17   1.0000      -0.425067       -11.5667
  18   1.0000      -0.412597       -11.2273
  19   1.0000      -0.407695       -11.0940
  20   1.0000      -0.394243       -10.7279
  21   1.0000      -0.368208       -10.0194
  22   1.0000      -0.349997        -9.5239
  23   1.0000      -0.309222        -8.4144
  24   1.0000      -0.283643        -7.7183
  25   1.0000      -0.255324        -6.9477
  26   0.0000      -0.084163        -2.2902
  27   0.0000      -0.008818        -0.2399
  28   0.0000       0.066521         1.8101
  29   0.0000       0.079897         2.1741
  30   0.0000       0.106779         2.9056

MULLIKEN ATOMIC CHARGES AND SPIN POPULATIONS
--------------------------------------------
   0 O :   -0.262120    0.467522
   1 O :   -0.308924   -0.145080
   2 C :    0.056786   -0.039369
   3 C :   -0.006167    0.516782
   4 C :    0.009792   -0.292309
   5 C :   -0.080462    0.562578
   6 C :    0.096410   -0.044593
   7 H :    0.177139   -0.009772
   8 H :    0.049181    0.003536
   9 H :    0.059818   -0.024769
  10 H :    0.037430    0.010643
  11 H :    0.031495   -0.027256
  12 H :    0.064725    0.017488
  13 H :    0.074896    0.004599
Sum of atomic charges         :   -0.0000000

LOEWDIN ATOMIC CHARGES AND SPIN POPULATIONS
-------------------------------------------
   0 O :   -0.167965    0.431199
   1 O :   -0.121223   -0.106229
   2 C :    0.055237   -0.007084
   3 C :    0.028167    0.395379
   4 C :   -0.042837   -0.170842
   5 C :    0.025178    0.442300
   6 C :   -0.048524   -0.008875
   7 H :    0.056096    0.003497
   8 H :    0.025693    0.002084
   9 H :    0.036878   -0.000979
  10 H :    0.036262    0.000559
  11 H :    0.023715    0.000108
  12 H :    0.042950    0.014921
  13 H :    0.050372    0.003962

  Mayer bond orders larger than 0.100000
B(  0-O ,  1-O ) :   0.5932 B(  0-O ,  7-H ) :   0.9823 B(  1-O ,  2-C ) :   0.9024
B(  1-O ,  3-C ) :   0.3114 B(  2-C ,  3-C ) :   0.9803 B(  2-C ,  6-C ) :   1.0086
B(  2-C ,  8-H ) :   0.9524 B(  3-C ,  4-C ) :   1.2296 B(  3-C ,  9-H ) :   0.9937
B(  4-C ,  5-C ) :   1.5327 B(  4-C , 10-H ) :   0.9934 B(  5-C ,  6-C ) :   0.9903
B(  5-C , 11-H ) :   0.9838 B(  6-C , 12-H ) :   0.9296 B(  6-C , 13-H ) :   0.9281

Dispersion correction           -0.009962663
FINAL SINGLE POINT ENERGY      -344.351529023085
Dispersion correction            ... done

DIPOLE MOMENT
-------------
                                X             Y             Z
Electronic contribution:     -0.73558       0.48286       1.63578
Nuclear contribution   :      1.29327       0.07525      -1.89038
                        -----------------------------------------
Total Dipole Moment    :      0.55768       0.55810      -0.25460
                        -----------------------------------------
Magnitude (a.u.)       :      0.82904
Magnitude (Debye)      :      2.10726

Rotational constants in cm-1:     0.169096     0.074448     0.065151
Rotational constants in MHz :  5069.370629  2231.887396  1953.187767

                             ****ORCA TERMINATED NORMALLY****
TOTAL RUN TIME: 0 days 0 hours 1 minutes 15 seconds 172 msec
